   * xtb version 6.6.0 (8843059) compiled by 'stahn@majestix' on 2023-02-09
          program call               : xtb --gfn2 in.xyz --ohess vtight

   ID    Z sym.   atoms
    1    6 C      1-4, 8, 10
    2    8 O      5, 6
    3    7 N      7, 9, 11, 12
    4    1 H      13-26

          :  Hamiltonian                  GFN2-xTB          :
 * total energy  :   -39.8275235 Eh     change       -0.2783196E-10 Eh
   *** GEOMETRY OPTIMIZATION CONVERGED AFTER 1 ITERATIONS ***

 final structure:
================
26
 xtb: 6.6.0 (8843059)
C           -0.78561300000000        2.08929600000000        0.01408500000000
C           -1.99417800000000        1.16883500000000       -0.12239300000000
C           -1.61886800000000       -0.28199100000000        0.19554800000000
C           -0.39729000000000       -0.74403200000000       -0.63995700000000
O           -0.77404300000000       -0.78665800000000       -1.97248800000000
O           -0.04278400000000       -2.02982600000000       -0.22879600000000
N           -1.28443400000000       -0.55924300000000        1.58805600000000
C            0.34908600000000        1.54955400000000       -0.85133400000000
N            0.72513100000000        0.18811000000000       -0.49110300000000
C            1.62666300000000        0.06630900000000        0.56204700000000
N            2.34643700000000       -1.10503200000000        0.56987200000000
N            1.81755800000000        1.05478500000000        1.34197400000000
H           -1.04501100000000        3.09831200000000       -0.30712300000000
H           -0.43861700000000        2.13763500000000        1.04710900000000
H           -2.36064700000000        1.20018300000000       -1.14968100000000
H           -2.80295400000000        1.48506400000000        0.54205900000000
H           -2.44970900000000       -0.94232100000000       -0.08183200000000
H           -0.38500700000000       -2.13519700000000        0.67573600000000
H           -0.53280100000000        0.05872200000000        1.88482800000000
H           -2.08433500000000       -0.37214200000000        2.18220500000000
H            0.03859700000000        1.52855200000000       -1.89952200000000
H            1.24038800000000        2.16484500000000       -0.74028700000000
H            1.95699800000000       -1.88289100000000        0.05996300000000
H            2.82906200000000       -1.33434900000000        1.42381100000000
H            2.57975700000000        0.91501000000000        1.99768500000000
H           -0.06556500000000       -1.21238100000000       -2.47076600000000

          :  Hamiltonian                  GFN2-xTB          :
         :: gradient norm              0.000063664416 Eh/a0 ::
         :: HOMO-LUMO gap              4.964019086858 eV    ::
         :: SCC energy               -40.246381836149 Eh    ::
         :: -> dispersion             -0.024600791700 Eh    ::
         :: repulsion energy           0.418578729853 Eh    ::

    * Orbital Energies and Occupations

         #    Occupation            Energy/Eh            Energy/eV
      -------------------------------------------------------------
         1        2.0000           -0.7151394             -19.4599
       ...           ...                  ...                  ...
        23        2.0000           -0.4841252             -13.1737
        24        2.0000           -0.4773466             -12.9893
        25        2.0000           -0.4721123             -12.8468
        26        2.0000           -0.4653548             -12.6629
        27        2.0000           -0.4532243             -12.3329
        28        2.0000           -0.4509733             -12.2716
        29        2.0000           -0.4454204             -12.1205
        30        2.0000           -0.4327274             -11.7751
        31        2.0000           -0.4213665             -11.4660
        32        2.0000           -0.3923791             -10.6772
        33        2.0000           -0.3813777             -10.3778
        34        2.0000           -0.3645820              -9.9208
        35        2.0000           -0.3600385              -9.7971 (HOMO)
        36                         -0.1776141              -4.8331 (LUMO)
        37                         -0.0041732              -0.1136
        38                          0.0154174               0.4195
        39                          0.0492197               1.3393
        40                          0.0595857               1.6214
        41                          0.0644703               1.7543
        42                          0.0717377               1.9521
        43                          0.0969109               2.6371
        44                          0.0996505               2.7116
        45                          0.1099811               2.9927
        46                          0.1225410               3.3345
       ...                                ...                  ...
        62                          0.5947699              16.1845
      -------------------------------------------------------------
                  HL-Gap            0.1824243 Eh            4.9640 eV

     #   Z          covCN         q      C6AA      α(0)
     1   6 C        3.804    -0.069    21.815     6.649
     2   6 C        3.806    -0.069    21.822     6.650
     3   6 C        3.783     0.034    20.024     6.374
     4   6 C        3.607     0.330    16.140     5.805
     5   8 O        1.658    -0.441    21.662     6.283
     6   8 O        1.656    -0.467    22.203     6.361
     7   7 N        2.633    -0.370    29.543     8.072
     8   6 C        3.762     0.005    20.544     6.461
     9   7 N        2.745    -0.201    25.362     7.480
    10   6 C        2.748     0.237    23.043     7.860
    11   7 N        2.642    -0.311    28.000     7.859
    12   7 N        1.786    -0.437    32.396     8.430
    13   1 H        0.924     0.039     2.462     2.454
    14   1 H        0.924     0.057     2.231     2.336
    15   1 H        0.924     0.049     2.336     2.390
    16   1 H        0.924     0.032     2.565     2.504
    17   1 H        0.924     0.042     2.426     2.436
    18   1 H        0.804     0.325     0.650     1.266
    19   1 H        0.860     0.160     1.332     1.808
    20   1 H        0.860     0.150     1.401     1.854
    21   1 H        0.924     0.048     2.347     2.396
    22   1 H        0.925     0.063     2.164     2.301
    23   1 H        0.860     0.190     1.157     1.685
    24   1 H        0.860     0.164     1.307     1.791
    25   1 H        0.860     0.121     1.616     1.991
    26   1 H        0.805     0.319     0.666     1.282

Wiberg/Mayer (AO) data.
largest (>0.10) Wiberg bond orders for each atom

     #   Z sym  total        # sym  WBO       # sym  WBO       # sym  WBO
 ---------------------------------------------------------------------------
     1   6 C    3.996 --     2 C    1.010     8 C    1.000    13 H    0.975
                            14 H    0.970
     2   6 C    3.997 --     1 C    1.010     3 C    0.988    16 H    0.975
                            15 H    0.974
     3   6 C    3.982 --     7 N    1.016     2 C    0.988    17 H    0.963
                             4 C    0.939
     4   6 C    3.929 --     5 O    1.001     6 O    0.987     3 C    0.939
                             9 N    0.935
     5   8 O    1.990 --     4 C    1.001    26 H    0.878
     6   8 O    1.987 --     4 C    0.987    18 H    0.852
     7   7 N    3.028 --     3 C    1.016    20 H    0.962    19 H    0.951
     8   6 C    3.973 --     1 C    1.000     9 N    0.984    22 H    0.971
                            21 H    0.970
     9   7 N    3.282 --    10 C    1.089     8 C    0.984     4 C    0.935
    10   6 C    3.961 --    12 N    1.669    11 N    1.158     9 N    1.089
    11   7 N    3.268 --    10 C    1.158    24 H    0.953    23 H    0.928
                            12 N    0.163
    12   7 N    2.934 --    10 C    1.669    25 H    0.954    11 N    0.163
    13   1 H    0.998 --     1 C    0.975
    14   1 H    0.997 --     1 C    0.970
    15   1 H    0.998 --     2 C    0.974
    16   1 H    0.999 --     2 C    0.975
    17   1 H    0.998 --     3 C    0.963
    18   1 H    0.894 --     6 O    0.852
    19   1 H    0.974 --     7 N    0.951
    20   1 H    0.978 --     7 N    0.962
    21   1 H    0.998 --     8 C    0.970
    22   1 H    0.996 --     8 C    0.971
    23   1 H    0.964 --    11 N    0.928
    24   1 H    0.973 --    11 N    0.953
    25   1 H    0.985 --    12 N    0.954
    26   1 H    0.898 --     5 O    0.878
 ---------------------------------------------------------------------------

molecular dipole:
                 x           y           z       tot (Debye)
 q only:       -0.236      -0.350       0.139
   full:       -0.210      -0.506       0.549       1.971

 projected vibrational frequencies (cm⁻¹)
eigval :       -0.00    -0.00     0.00     0.00     0.00     0.00
eigval :       74.87    79.06   125.94   203.78   237.21   258.35
eigval :      298.88   320.20   323.67   337.26   358.53   375.87
eigval :      410.58   427.72   438.99   469.93   489.30   520.60
eigval :      557.34   561.05   609.88   644.53   667.68   721.84
eigval :      782.72   860.74   879.45   909.36   940.99   983.84
eigval :     1011.96  1026.72  1039.66  1048.64  1070.50  1108.04
eigval :     1110.99  1125.55  1137.43  1152.82  1176.63  1194.18
eigval :     1221.94  1226.33  1271.26  1290.39  1313.18  1320.99
eigval :     1337.16  1337.66  1347.73  1385.59  1436.02  1473.65
eigval :     1478.85  1486.70  1555.81  1687.61  2927.43  2955.34
eigval :     2957.33  2987.68  2997.24  3003.22  3014.90  3360.26
eigval :     3371.86  3379.60  3418.39  3440.15  3508.72  3531.11

   temp. (K)  partition function   enthalpy   heat capacity  entropy
                                   cal/mol     cal/K/mol   cal/K/mol   J/K/mol
 298.15  VIB   936.                 5818.982     42.829     32.847
         ROT  0.864E+06              888.752      2.981     30.146
         INT  0.809E+09             6707.735     45.810     62.993
         TR   0.222E+28             1481.254      4.968     41.354
         TOT                        8188.9885    50.7781   104.3471   436.5882

       T/K    H(0)-H(T)+PV         H(T)/Eh          T*S/Eh         G(T)/Eh
   ------------------------------------------------------------------------
    298.15    0.130500E-01    0.229698E+00    0.495787E-01    0.180119E+00
   ------------------------------------------------------------------------

         :::::::::::::::::::::::::::::::::::::::::::::::::::::
         ::                  THERMODYNAMIC                  ::
         :::::::::::::::::::::::::::::::::::::::::::::::::::::
         :: total free energy         -39.647404456577 Eh   ::
         ::.................................................::
         :: total energy              -39.827523486274 Eh   ::
         :: zero point energy           0.216647707209 Eh   ::
         :: G(RRHO) w/o ZPVE           -0.036528677513 Eh   ::
         :: G(RRHO) contrib.            0.180119029696 Eh   ::
         :::::::::::::::::::::::::::::::::::::::::::::::::::::

           -------------------------------------------------
          | TOTAL ENERGY              -39.827523486274 Eh   |
          | TOTAL ENTHALPY            -39.597825795258 Eh   |
          | TOTAL FREE ENERGY         -39.647404456577 Eh   |
          | GRADIENT NORM               0.000063664941 Eh/α |
          | HOMO-LUMO GAP               4.964018771614 eV   |
           -------------------------------------------------

 * finished run on 2025/07/30 at 12:34:51.262
