   * xtb version 6.6.0 (8843059) compiled by 'stahn@majestix' on 2023-02-09
          program call               : xtb --gfn2 in.xyz --ohess vtight

   ID    Z sym.   atoms
    1    6 C      1-4, 8, 10
    2    8 O      5, 6
    3    7 N      7, 9, 11, 12
    4    1 H      13-26

          :  Hamiltonian                  GFN2-xTB          :
 * total energy  :   -39.8284297 Eh     change       -0.3049649E-10 Eh
   *** GEOMETRY OPTIMIZATION CONVERGED AFTER 1 ITERATIONS ***

 final structure:
================
26
 xtb: 6.6.0 (8843059)
C           -0.89427300000000        2.27053600000000       -0.21889200000000
C           -2.03721100000000        1.31350400000000        0.08838400000000
C           -1.71742700000000       -0.05090800000000       -0.50987700000000
C           -0.34857000000000       -0.59393500000000       -0.03042000000000
O           -0.09847600000000       -1.68454700000000       -0.85911800000000
O           -0.43987600000000       -0.99904400000000        1.31713100000000
N           -2.70087600000000       -1.03682100000000       -0.07795000000000
C            0.38557300000000        1.71020300000000        0.38265700000000
N            0.69251200000000        0.39851800000000       -0.17194400000000
C            2.03306300000000       -0.01139500000000       -0.06042600000000
N            2.23662300000000       -1.28864900000000        0.43434600000000
N            3.03909000000000        0.64945400000000       -0.44800400000000
H           -0.77720600000000        2.37214800000000       -1.29921400000000
H           -1.09204400000000        3.25525500000000        0.20589900000000
H           -2.97773900000000        1.68045400000000       -0.32662700000000
H           -2.15645300000000        1.20708200000000        1.16854900000000
H           -1.64162000000000        0.03741500000000       -1.60549800000000
H           -1.34989200000000       -1.31273800000000        1.44396100000000
H           -3.63123500000000       -0.75087000000000       -0.36221200000000
H           -2.49405200000000       -1.92438600000000       -0.52645900000000
H            1.23033200000000        2.36909000000000        0.17469900000000
H            0.26895500000000        1.63392700000000        1.47465800000000
H            3.21780000000000       -1.47967400000000        0.57592600000000
H            1.64281400000000       -1.53091900000000        1.21807400000000
H            2.82669300000000        1.52649200000000       -0.90790200000000
H            0.80510100000000       -2.00113200000000       -0.68789400000000

          :  Hamiltonian                  GFN2-xTB          :
         :: gradient norm              0.000043400521 Eh/a0 ::
         :: HOMO-LUMO gap              4.950468029537 eV    ::
         :: SCC energy               -40.245799403066 Eh    ::
         :: -> dispersion             -0.023255233252 Eh    ::
         :: repulsion energy           0.417154140367 Eh    ::

    * Orbital Energies and Occupations

         #    Occupation            Energy/Eh            Energy/eV
      -------------------------------------------------------------
         1        2.0000           -0.7067573             -19.2318
       ...           ...                  ...                  ...
        23        2.0000           -0.4867424             -13.2449
        24        2.0000           -0.4827547             -13.1364
        25        2.0000           -0.4721251             -12.8472
        26        2.0000           -0.4695135             -12.7761
        27        2.0000           -0.4567710             -12.4294
        28        2.0000           -0.4512991             -12.2805
        29        2.0000           -0.4408184             -11.9953
        30        2.0000           -0.4365523             -11.8792
        31        2.0000           -0.4286407             -11.6639
        32        2.0000           -0.3935024             -10.7077
        33        2.0000           -0.3883814             -10.5684
        34        2.0000           -0.3712728             -10.1028
        35        2.0000           -0.3692877             -10.0488 (HOMO)
        36                         -0.1873613              -5.0984 (LUMO)
        37                         -0.0020926              -0.0569
        38                          0.0122267               0.3327
        39                          0.0448440               1.2203
        40                          0.0486917               1.3250
        41                          0.0566551               1.5417
        42                          0.0742948               2.0217
        43                          0.0899708               2.4482
        44                          0.1100765               2.9953
        45                          0.1143937               3.1128
        46                          0.1210616               3.2943
       ...                                ...                  ...
        62                          0.5987450              16.2927
      -------------------------------------------------------------
                  HL-Gap            0.1819263 Eh            4.9505 eV

     #   Z          covCN         q      C6AA      α(0)
     1   6 C        3.807    -0.067    21.786     6.644
     2   6 C        3.810    -0.068    21.792     6.645
     3   6 C        3.787     0.043    19.873     6.349
     4   6 C        3.606     0.330    16.135     5.804
     5   8 O        1.658    -0.473    22.325     6.378
     6   8 O        1.655    -0.487    22.618     6.420
     7   7 N        2.636    -0.357    29.197     8.025
     8   6 C        3.756     0.018    20.320     6.427
     9   7 N        2.737    -0.209    25.542     7.506
    10   6 C        2.749     0.237    23.043     7.860
    11   7 N        2.650    -0.313    28.061     7.867
    12   7 N        1.790    -0.408    31.568     8.322
    13   1 H        0.924     0.048     2.349     2.397
    14   1 H        0.924     0.045     2.377     2.411
    15   1 H        0.924     0.039     2.468     2.457
    16   1 H        0.924     0.052     2.295     2.369
    17   1 H        0.923     0.023     2.692     2.566
    18   1 H        0.804     0.321     0.661     1.278
    19   1 H        0.860     0.148     1.418     1.865
    20   1 H        0.860     0.161     1.330     1.807
    21   1 H        0.924     0.049     2.335     2.390
    22   1 H        0.923     0.032     2.557     2.501
    23   1 H        0.860     0.186     1.181     1.702
    24   1 H        0.860     0.195     1.130     1.665
    25   1 H        0.860     0.135     1.507     1.923
    26   1 H        0.804     0.322     0.658     1.274

Wiberg/Mayer (AO) data.
largest (>0.10) Wiberg bond orders for each atom

     #   Z sym  total        # sym  WBO       # sym  WBO       # sym  WBO
 ---------------------------------------------------------------------------
     1   6 C    3.997 --     2 C    1.008     8 C    1.006    13 H    0.976
                            14 H    0.975
     2   6 C    3.996 --     1 C    1.008     3 C    0.997    15 H    0.975
                            16 H    0.974
     3   6 C    3.985 --     7 N    1.014     2 C    0.997    17 H    0.960
                             4 C    0.944
     4   6 C    3.933 --     5 O    0.994     9 N    0.973     6 O    0.962
                             3 C    0.944
     5   8 O    1.970 --     4 C    0.994    26 H    0.843
     6   8 O    1.963 --     4 C    0.962    18 H    0.857
     7   7 N    3.019 --     3 C    1.014    19 H    0.962    20 H    0.958
     8   6 C    3.976 --     1 C    1.006     9 N    0.978    22 H    0.967
                            21 H    0.967
     9   7 N    3.282 --    10 C    1.056     8 C    0.978     4 C    0.973
                            12 N    0.117
    10   6 C    3.961 --    12 N    1.729    11 N    1.134     9 N    1.056
    11   7 N    3.241 --    10 C    1.134    23 H    0.946    24 H    0.928
                            12 N    0.113
    12   7 N    2.971 --    10 C    1.729    25 H    0.948     9 N    0.117
                            11 N    0.113
    13   1 H    0.998 --     1 C    0.976
    14   1 H    0.997 --     1 C    0.975
    15   1 H    0.998 --     2 C    0.975
    16   1 H    0.997 --     2 C    0.974
    17   1 H    0.999 --     3 C    0.960
    18   1 H    0.897 --     6 O    0.857
    19   1 H    0.978 --     7 N    0.962
    20   1 H    0.974 --     7 N    0.958
    21   1 H    0.998 --     8 C    0.967
    22   1 H    0.999 --     8 C    0.967
    23   1 H    0.965 --    11 N    0.946
    24   1 H    0.962 --    11 N    0.928
    25   1 H    0.982 --    12 N    0.948
    26   1 H    0.896 --     5 O    0.843
 ---------------------------------------------------------------------------

molecular dipole:
                 x           y           z       tot (Debye)
 q only:       -0.860       0.001       0.352
   full:       -1.246       0.116       0.338       3.295

 projected vibrational frequencies (cm⁻¹)
eigval :       -0.00    -0.00    -0.00     0.00     0.00     0.00
eigval :       74.51   105.25   126.69   169.49   204.87   270.45
eigval :      290.38   306.56   324.23   332.15   378.23   400.14
eigval :      422.22   439.03   457.74   496.39   519.19   532.61
eigval :      552.40   586.11   619.22   646.98   752.20   775.62
eigval :      813.36   865.34   890.41   910.85   954.70   983.26
eigval :     1000.59  1020.80  1047.90  1082.73  1088.65  1101.06
eigval :     1110.65  1120.24  1142.76  1157.15  1187.66  1203.62
eigval :     1223.10  1227.37  1259.35  1289.01  1305.09  1331.45
eigval :     1336.00  1350.91  1355.83  1362.79  1466.44  1467.38
eigval :     1471.48  1487.22  1540.12  1713.26  2851.65  2863.17
eigval :     2972.70  2980.20  2982.91  2992.00  2995.58  3359.32
eigval :     3387.31  3398.88  3405.82  3410.18  3419.61  3483.53

   temp. (K)  partition function   enthalpy   heat capacity  entropy
                                   cal/mol     cal/K/mol   cal/K/mol   J/K/mol
 298.15  VIB   801.                 5722.312     42.217     32.297
         ROT  0.965E+06              888.752      2.981     30.365
         INT  0.773E+09             6611.064     45.198     62.662
         TR   0.222E+28             1481.254      4.968     41.354
         TOT                        8092.3180    50.1658   104.0157   435.2019

       T/K    H(0)-H(T)+PV         H(T)/Eh          T*S/Eh         G(T)/Eh
   ------------------------------------------------------------------------
    298.15    0.128959E-01    0.229673E+00    0.494212E-01    0.180252E+00
   ------------------------------------------------------------------------

         :::::::::::::::::::::::::::::::::::::::::::::::::::::
         ::                  THERMODYNAMIC                  ::
         :::::::::::::::::::::::::::::::::::::::::::::::::::::
         :: total free energy         -39.648178198543 Eh   ::
         ::.................................................::
         :: total energy              -39.828429726794 Eh   ::
         :: zero point energy           0.216776833010 Eh   ::
         :: G(RRHO) w/o ZPVE           -0.036525304759 Eh   ::
         :: G(RRHO) contrib.            0.180251528251 Eh   ::
         :::::::::::::::::::::::::::::::::::::::::::::::::::::

           -------------------------------------------------
          | TOTAL ENERGY              -39.828429726794 Eh   |
          | TOTAL ENTHALPY            -39.598756964263 Eh   |
          | TOTAL FREE ENERGY         -39.648178198543 Eh   |
          | GRADIENT NORM               0.000043401683 Eh/α |
          | HOMO-LUMO GAP               4.950467319648 eV   |
           -------------------------------------------------

 * finished run on 2025/07/30 at 12:34:49.930
