   * xtb version 6.6.0 (8843059) compiled by 'stahn@majestix' on 2023-02-09
          program call               : xtb --gfn2 in.xyz --ohess vtight

   ID    Z sym.   atoms
    1    6 C      1-3
    2    8 O      4, 5
    3    7 N      6
    4    1 H      7-13

          :  Hamiltonian                  GFN2-xTB          :
 * total energy  :   -21.0416614 Eh     change       -0.5077609E-09 Eh
   *** GEOMETRY OPTIMIZATION CONVERGED AFTER 1 ITERATIONS ***

 final structure:
================
13
 xtb: 6.6.0 (8843059)
C           -1.06945000000000       -1.45535500000000        0.44993500000000
C           -0.76781600000000        0.05588300000000        0.40272500000000
C            0.71916000000000        0.20194300000000        0.13005900000000
O            1.56180900000000        0.33479700000000        0.97469600000000
O            1.01465000000000        0.10216300000000       -1.17068900000000
N           -1.53466700000000        0.79162900000000       -0.58328900000000
H           -0.86411000000000       -1.90768300000000       -0.51891800000000
H           -0.45471600000000       -1.94025200000000        1.20372900000000
H           -2.11706100000000       -1.61408100000000        0.69802000000000
H           -0.96701100000000        0.49325100000000        1.38741300000000
H            1.97201600000000        0.18829300000000       -1.30199900000000
H           -1.29016500000000        0.48225800000000       -1.51788100000000
H           -2.52622200000000        0.63149800000000       -0.44420200000000

          :  Hamiltonian                  GFN2-xTB          :
         :: gradient norm              0.000052146623 Eh/a0 ::
         :: HOMO-LUMO gap              3.763624521271 eV    ::
         :: SCC energy               -21.251550146896 Eh    ::
         :: -> dispersion             -0.007029408450 Eh    ::
         :: repulsion energy           0.209877910726 Eh    ::

    * Orbital Energies and Occupations

         #    Occupation            Energy/Eh            Energy/eV
      -------------------------------------------------------------
         1        2.0000           -0.7497463             -20.4016
       ...           ...                  ...                  ...
         6        2.0000           -0.6015120             -16.3680
         7        2.0000           -0.5915263             -16.0963
         8        2.0000           -0.5770937             -15.7035
         9        2.0000           -0.5574230             -15.1683
        10        2.0000           -0.5312592             -14.4563
        11        2.0000           -0.5109069             -13.9025
        12        2.0000           -0.5019217             -13.6580
        13        2.0000           -0.4916169             -13.3776
        14        2.0000           -0.4810004             -13.0887
        15        2.0000           -0.4785898             -13.0231
        16        2.0000           -0.4596638             -12.5081
        17        2.0000           -0.4211178             -11.4592
        18        2.0000           -0.3776409             -10.2761 (HOMO)
        19                         -0.2393302              -6.5125 (LUMO)
        20                          0.0358459               0.9754
        21                          0.0535052               1.4559
        22                          0.0864854               2.3534
        23                          0.1195215               3.2523
        24                          0.1412456               3.8435
        25                          0.1637756               4.4566
        26                          0.1925218               5.2388
        27                          0.2176570               5.9227
        28                          0.2221948               6.0462
        29                          0.2552522               6.9458
       ...                                ...                  ...
        31                          0.6396486              17.4057
      -------------------------------------------------------------
                  HL-Gap            0.1383107 Eh            3.7636 eV

     #   Z          covCN         q      C6AA      α(0)
     1   6 C        3.756    -0.114    22.735     6.798
     2   6 C        3.782     0.033    20.043     6.378
     3   6 C        2.696     0.358    20.925     7.487
     4   8 O        0.856    -0.403    21.750     6.253
     5   8 O        1.659    -0.368    20.246     6.074
     6   7 N        2.632    -0.341    28.774     7.967
     7   1 H        0.925     0.046     2.372     2.408
     8   1 H        0.925     0.048     2.345     2.395
     9   1 H        0.925     0.048     2.351     2.398
    10   1 H        0.924     0.061     2.191     2.315
    11   1 H        0.804     0.331     0.635     1.252
    12   1 H        0.860     0.156     1.363     1.829
    13   1 H        0.860     0.147     1.421     1.868

Wiberg/Mayer (AO) data.
largest (>0.10) Wiberg bond orders for each atom

     #   Z sym  total        # sym  WBO       # sym  WBO       # sym  WBO
 ---------------------------------------------------------------------------
     1   6 C    3.994 --     7 H    0.987     8 H    0.985     9 H    0.983
                             2 C    0.969
     2   6 C    3.987 --     6 N    1.025     1 C    0.969    10 H    0.960
                             3 C    0.952
     3   6 C    3.911 --     4 O    1.775     5 O    1.138     2 C    0.952
     4   8 O    2.044 --     3 C    1.775     5 O    0.175
     5   8 O    2.208 --     3 C    1.138    11 H    0.865     4 O    0.175
     6   7 N    3.011 --     2 C    1.025    13 H    0.963    12 H    0.959
     7   1 H    0.998 --     1 C    0.987
     8   1 H    0.998 --     1 C    0.985
     9   1 H    0.998 --     1 C    0.983
    10   1 H    0.996 --     2 C    0.960
    11   1 H    0.890 --     5 O    0.865
    12   1 H    0.976 --     6 N    0.959
    13   1 H    0.978 --     6 N    0.963
 ---------------------------------------------------------------------------

molecular dipole:
                 x           y           z       tot (Debye)
 q only:       -0.505      -0.377      -0.635
   full:       -0.528      -0.709      -0.786       3.008

 projected vibrational frequencies (cm⁻¹)
eigval :       -0.00    -0.00    -0.00     0.00     0.00     0.00
eigval :       50.96   206.85   214.62   251.70   280.30   353.45
eigval :      526.44   568.76   607.47   726.72   811.77   935.55
eigval :      942.83  1011.17  1070.07  1079.39  1151.44  1196.57
eigval :     1251.39  1269.89  1336.30  1393.11  1488.52  1490.44
eigval :     1549.36  1798.81  2943.03  3026.32  3028.57  3045.26
eigval :     3393.48  3425.54  3447.65

   temp. (K)  partition function   enthalpy   heat capacity  entropy
                                   cal/mol     cal/K/mol   cal/K/mol   J/K/mol
 298.15  VIB   36.0                 2638.535     18.035     15.369
         ROT  0.142E+06              888.752      2.981     26.554
         INT  0.511E+07             3527.288     21.016     41.923
         TR   0.814E+27             1481.254      4.968     39.356
         TOT                        5008.5415    25.9844    81.2787   340.0699

       T/K    H(0)-H(T)+PV         H(T)/Eh          T*S/Eh         G(T)/Eh
   ------------------------------------------------------------------------
    298.15    0.798162E-02    0.112490E+00    0.386181E-01    0.738716E-01
   ------------------------------------------------------------------------

         :::::::::::::::::::::::::::::::::::::::::::::::::::::
         ::                  THERMODYNAMIC                  ::
         :::::::::::::::::::::::::::::::::::::::::::::::::::::
         :: total free energy         -20.967789791340 Eh   ::
         ::.................................................::
         :: total energy              -21.041661409367 Eh   ::
         :: zero point energy           0.104508116337 Eh   ::
         :: G(RRHO) w/o ZPVE           -0.030636498311 Eh   ::
         :: G(RRHO) contrib.            0.073871618027 Eh   ::
         :::::::::::::::::::::::::::::::::::::::::::::::::::::

           -------------------------------------------------
          | TOTAL ENERGY              -21.041661409367 Eh   |
          | TOTAL ENTHALPY            -20.929171674031 Eh   |
          | TOTAL FREE ENERGY         -20.967789791340 Eh   |
          | GRADIENT NORM               0.000052145209 Eh/α |
          | HOMO-LUMO GAP               3.763624755498 eV   |
           -------------------------------------------------

 * finished run on 2025/07/30 at 12:34:41.141
