   * xtb version 6.6.0 (8843059) compiled by 'stahn@majestix' on 2023-02-09
          program call               : xtb --gfn2 in.xyz --ohess vtight

   ID    Z sym.   atoms
    1    6 C      1-4, 8, 10
    2    8 O      5, 6
    3    7 N      7, 9, 11, 12
    4    1 H      13-26

          :  Hamiltonian                  GFN2-xTB          :
 * total energy  :   -39.8269440 Eh     change       -0.5440626E-10 Eh
   *** GEOMETRY OPTIMIZATION CONVERGED AFTER 1 ITERATIONS ***

 final structure:
================
26
 xtb: 6.6.0 (8843059)
C           -0.52370700000000        2.14281500000000       -0.12958700000000
C           -1.74992900000000        1.25485400000000       -0.31198100000000
C           -1.34123300000000       -0.18840100000000       -0.65715100000000
C           -0.38779500000000       -0.72117300000000        0.44238100000000
O            0.00833000000000       -2.01962300000000        0.24559700000000
O           -1.04175500000000       -0.67996600000000        1.66973300000000
N           -2.45522700000000       -1.10608200000000       -0.78248400000000
C            0.39678900000000        1.52282600000000        0.92243600000000
N            0.79248000000000        0.18298300000000        0.51405200000000
C            1.78540800000000        0.02649000000000       -0.42497000000000
N            2.82836100000000        0.93572200000000       -0.35412200000000
N            1.72726900000000       -0.90926300000000       -1.29416200000000
H            0.01910500000000        2.22319300000000       -1.07456800000000
H           -0.82294100000000        3.14391800000000        0.18523200000000
H           -2.38938000000000        1.64747400000000       -1.10694500000000
H           -2.32453000000000        1.23385300000000        0.61736600000000
H           -0.78313000000000       -0.20369700000000       -1.60123400000000
H           -0.71801600000000       -1.43834800000000        2.17209800000000
H           -2.86145500000000       -1.26853700000000        0.13289300000000
H           -3.16917300000000       -0.70959700000000       -1.38377800000000
H            1.27425900000000        2.14799900000000        1.08165300000000
H           -0.13906000000000        1.41980300000000        1.86854100000000
H            3.65123700000000        0.66561000000000       -0.87138600000000
H            3.03212000000000        1.33950600000000        0.54540900000000
H            2.54913000000000       -0.98078500000000       -1.88300200000000
H            0.57853000000000       -2.01984300000000       -0.55655500000000

          :  Hamiltonian                  GFN2-xTB          :
         :: gradient norm              0.000076256414 Eh/a0 ::
         :: HOMO-LUMO gap              4.583489311011 eV    ::
         :: SCC energy               -40.243702525600 Eh    ::
         :: -> dispersion             -0.023820591193 Eh    ::
         :: repulsion energy           0.416505952687 Eh    ::

    * Orbital Energies and Occupations

         #    Occupation            Energy/Eh            Energy/eV
      -------------------------------------------------------------
         1        2.0000           -0.7016622             -19.0932
       ...           ...                  ...                  ...
        23        2.0000           -0.4862500             -13.2315
        24        2.0000           -0.4802616             -13.0686
        25        2.0000           -0.4687442             -12.7552
        26        2.0000           -0.4593033             -12.4983
        27        2.0000           -0.4549616             -12.3801
        28        2.0000           -0.4495182             -12.2320
        29        2.0000           -0.4419157             -12.0251
        30        2.0000           -0.4333204             -11.7912
        31        2.0000           -0.4121357             -11.2148
        32        2.0000           -0.3960599             -10.7773
        33        2.0000           -0.3770292             -10.2595
        34        2.0000           -0.3675566             -10.0017
        35        2.0000           -0.3563221              -9.6960 (HOMO)
        36                         -0.1878820              -5.1125 (LUMO)
        37                         -0.0122135              -0.3323
        38                          0.0270243               0.7354
        39                          0.0401295               1.0920
        40                          0.0609221               1.6578
        41                          0.0728621               1.9827
        42                          0.0838470               2.2816
        43                          0.0971907               2.6447
        44                          0.1086664               2.9570
        45                          0.1173926               3.1944
        46                          0.1347352               3.6663
       ...                                ...                  ...
        62                          0.5657041              15.3936
      -------------------------------------------------------------
                  HL-Gap            0.1684401 Eh            4.5835 eV

     #   Z          covCN         q      C6AA      α(0)
     1   6 C        3.804    -0.066    21.760     6.641
     2   6 C        3.806    -0.070    21.841     6.653
     3   6 C        3.783     0.031    20.065     6.381
     4   6 C        3.608     0.330    16.131     5.802
     5   8 O        1.656    -0.461    22.065     6.341
     6   8 O        1.658    -0.443    21.697     6.288
     7   7 N        2.632    -0.340    28.768     7.966
     8   6 C        3.756     0.004    20.561     6.465
     9   7 N        2.744    -0.191    25.145     7.448
    10   6 C        2.746     0.238    23.021     7.856
    11   7 N        2.642    -0.310    27.980     7.856
    12   7 N        1.787    -0.443    32.573     8.453
    13   1 H        0.924     0.038     2.470     2.458
    14   1 H        0.924     0.039     2.457     2.451
    15   1 H        0.924     0.030     2.581     2.512
    16   1 H        0.924     0.046     2.367     2.406
    17   1 H        0.924     0.039     2.458     2.452
    18   1 H        0.805     0.322     0.657     1.274
    19   1 H        0.860     0.153     1.381     1.841
    20   1 H        0.860     0.142     1.459     1.892
    21   1 H        0.925     0.042     2.425     2.435
    22   1 H        0.924     0.064     2.151     2.294
    23   1 H        0.860     0.169     1.281     1.773
    24   1 H        0.860     0.168     1.287     1.777
    25   1 H        0.860     0.131     1.541     1.945
    26   1 H        0.804     0.337     0.620     1.237

Wiberg/Mayer (AO) data.
largest (>0.10) Wiberg bond orders for each atom

     #   Z sym  total        # sym  WBO       # sym  WBO       # sym  WBO
 ---------------------------------------------------------------------------
     1   6 C    3.998 --     2 C    1.009     8 C    0.997    13 H    0.977
                            14 H    0.975
     2   6 C    3.997 --     1 C    1.009     3 C    0.981    15 H    0.976
                            16 H    0.975
     3   6 C    3.987 --     7 N    1.026     2 C    0.981    17 H    0.961
                             4 C    0.935
     4   6 C    3.929 --     5 O    1.030     6 O    0.999     3 C    0.935
                             9 N    0.907
     5   8 O    1.981 --     4 C    1.030    26 H    0.800
     6   8 O    1.991 --     4 C    0.999    18 H    0.875
     7   7 N    3.011 --     3 C    1.026    20 H    0.964    19 H    0.960
     8   6 C    3.973 --     1 C    0.997     9 N    0.982    22 H    0.968
                            21 H    0.967
     9   7 N    3.337 --    10 C    1.151     8 C    0.982     4 C    0.907
                            12 N    0.109
    10   6 C    3.963 --    12 N    1.638     9 N    1.151    11 N    1.129
    11   7 N    3.228 --    10 C    1.129    23 H    0.951    24 H    0.944
                            12 N    0.136
    12   7 N    2.979 --    10 C    1.638    25 H    0.950    11 N    0.136
                             9 N    0.109
    13   1 H    0.999 --     1 C    0.977
    14   1 H    0.998 --     1 C    0.975
    15   1 H    0.999 --     2 C    0.976
    16   1 H    0.998 --     2 C    0.975
    17   1 H    0.998 --     3 C    0.961
    18   1 H    0.896 --     6 O    0.875
    19   1 H    0.977 --     7 N    0.960
    20   1 H    0.980 --     7 N    0.964
    21   1 H    0.998 --     8 C    0.967
    22   1 H    0.996 --     8 C    0.968
    23   1 H    0.971 --    11 N    0.951
    24   1 H    0.972 --    11 N    0.944
    25   1 H    0.983 --    12 N    0.950
    26   1 H    0.887 --     5 O    0.800
 ---------------------------------------------------------------------------

molecular dipole:
                 x           y           z       tot (Debye)
 q only:        0.472       0.915       0.294
   full:        0.965       1.396       0.362       4.411

 projected vibrational frequencies (cm⁻¹)
eigval :       -0.00    -0.00    -0.00     0.00     0.00     0.00
eigval :       57.37    90.67   106.59   213.22   226.51   252.39
eigval :      258.96   272.84   313.25   329.36   361.96   387.66
eigval :      399.25   418.45   436.58   490.77   524.77   545.10
eigval :      572.69   592.68   602.04   626.11   677.11   743.06
eigval :      750.53   875.16   896.47   898.44   935.63   955.80
eigval :      999.99  1028.58  1033.87  1052.01  1085.65  1101.18
eigval :     1113.17  1115.75  1146.80  1157.30  1183.19  1202.28
eigval :     1208.07  1244.84  1273.54  1294.40  1317.37  1329.41
eigval :     1336.26  1338.19  1354.78  1400.88  1458.21  1473.50
eigval :     1484.06  1499.74  1551.99  1674.33  2925.29  2956.20
eigval :     2967.86  2977.04  2982.92  2986.37  2999.32  3119.14
eigval :     3385.94  3398.60  3418.68  3452.27  3504.17  3523.92

   temp. (K)  partition function   enthalpy   heat capacity  entropy
                                   cal/mol     cal/K/mol   cal/K/mol   J/K/mol
 298.15  VIB  0.136E+04             5894.558     42.652     33.604
         ROT  0.926E+06              888.752      2.981     30.282
         INT  0.125E+10             6783.310     45.633     63.886
         TR   0.222E+28             1481.254      4.968     41.354
         TOT                        8264.5642    50.6013   105.2402   440.3250

       T/K    H(0)-H(T)+PV         H(T)/Eh          T*S/Eh         G(T)/Eh
   ------------------------------------------------------------------------
    298.15    0.131704E-01    0.229297E+00    0.500030E-01    0.179294E+00
   ------------------------------------------------------------------------

         :::::::::::::::::::::::::::::::::::::::::::::::::::::
         ::                  THERMODYNAMIC                  ::
         :::::::::::::::::::::::::::::::::::::::::::::::::::::
         :: total free energy         -39.647650214232 Eh   ::
         ::.................................................::
         :: total energy              -39.826943992127 Eh   ::
         :: zero point energy           0.216126368392 Eh   ::
         :: G(RRHO) w/o ZPVE           -0.036832590496 Eh   ::
         :: G(RRHO) contrib.            0.179293777895 Eh   ::
         :::::::::::::::::::::::::::::::::::::::::::::::::::::

           -------------------------------------------------
          | TOTAL ENERGY              -39.826943992127 Eh   |
          | TOTAL ENTHALPY            -39.597647202366 Eh   |
          | TOTAL FREE ENERGY         -39.647650214232 Eh   |
          | GRADIENT NORM               0.000076259521 Eh/α |
          | HOMO-LUMO GAP               4.583489549740 eV   |
           -------------------------------------------------

 * finished run on 2025/07/30 at 12:34:55.647
