   * xtb version 6.6.0 (8843059) compiled by 'stahn@majestix' on 2023-02-09
          program call               : xtb --gfn2 in.xyz --ohess vtight

   ID    Z sym.   atoms
    1    6 C      1-3
    2    8 O      4, 5
    3    7 N      6
    4    1 H      7-13

          :  Hamiltonian                  GFN2-xTB          :
 * total energy  :   -21.0448842 Eh     change       -0.7261711E-09 Eh
   *** GEOMETRY OPTIMIZATION CONVERGED AFTER 1 ITERATIONS ***

 final structure:
================
13
 xtb: 6.6.0 (8843059)
C           -1.22079500000000       -1.29850100000000       -0.53206300000000
C           -0.72265200000000       -0.18488400000000        0.39394500000000
C            0.72030100000000        0.14621200000000        0.02585800000000
O            1.07088600000000        1.16485300000000       -0.50911700000000
O            1.57241700000000       -0.82864000000000        0.36012400000000
N           -1.60004500000000        0.96345600000000        0.29983100000000
H           -0.61671700000000       -2.19225200000000       -0.40592300000000
H           -2.25547700000000       -1.52200600000000       -0.29014400000000
H           -1.16791200000000       -0.97441300000000       -1.56931100000000
H           -0.73180900000000       -0.54660300000000        1.42842900000000
H            2.47728400000000       -0.59450400000000        0.09739400000000
H           -1.28436700000000        1.70175400000000        0.92000400000000
H           -1.56905500000000        1.33681400000000       -0.64427300000000

          :  Hamiltonian                  GFN2-xTB          :
         :: gradient norm              0.000077282431 Eh/a0 ::
         :: HOMO-LUMO gap              3.691353301958 eV    ::
         :: SCC energy               -21.254570365197 Eh    ::
         :: -> dispersion             -0.006975029912 Eh    ::
         :: repulsion energy           0.209675440673 Eh    ::

    * Orbital Energies and Occupations

         #    Occupation            Energy/Eh            Energy/eV
      -------------------------------------------------------------
         1        2.0000           -0.7515261             -20.4501
       ...           ...                  ...                  ...
         6        2.0000           -0.5949763             -16.1901
         7        2.0000           -0.5845050             -15.9052
         8        2.0000           -0.5814668             -15.8225
         9        2.0000           -0.5634926             -15.3334
        10        2.0000           -0.5311186             -14.4525
        11        2.0000           -0.5177630             -14.0890
        12        2.0000           -0.4999453             -13.6042
        13        2.0000           -0.4845734             -13.1859
        14        2.0000           -0.4772056             -12.9854
        15        2.0000           -0.4669051             -12.7051
        16        2.0000           -0.4550935             -12.3837
        17        2.0000           -0.4323156             -11.7639
        18        2.0000           -0.3768961             -10.2559 (HOMO)
        19                         -0.2412413              -6.5645 (LUMO)
        20                          0.0330349               0.8989
        21                          0.0533412               1.4515
        22                          0.1071104               2.9146
        23                          0.1256840               3.4200
        24                          0.1476523               4.0178
        25                          0.1569973               4.2721
        26                          0.1763528               4.7988
        27                          0.2240023               6.0954
        28                          0.2428825               6.6092
        29                          0.2482993               6.7566
       ...                                ...                  ...
        31                          0.6328186              17.2199
      -------------------------------------------------------------
                  HL-Gap            0.1356547 Eh            3.6914 eV

     #   Z          covCN         q      C6AA      α(0)
     1   6 C        3.758    -0.113    22.723     6.796
     2   6 C        3.782     0.034    20.020     6.374
     3   6 C        2.692     0.346    21.128     7.523
     4   8 O        0.856    -0.412    21.913     6.276
     5   8 O        1.659    -0.379    20.448     6.104
     6   7 N        2.632    -0.335    28.617     7.945
     7   1 H        0.925     0.054     2.266     2.354
     8   1 H        0.925     0.066     2.129     2.282
     9   1 H        0.925     0.048     2.340     2.392
    10   1 H        0.924     0.060     2.201     2.320
    11   1 H        0.804     0.330     0.637     1.253
    12   1 H        0.860     0.145     1.433     1.875
    13   1 H        0.860     0.155     1.368     1.832

Wiberg/Mayer (AO) data.
largest (>0.10) Wiberg bond orders for each atom

     #   Z sym  total        # sym  WBO       # sym  WBO       # sym  WBO
 ---------------------------------------------------------------------------
     1   6 C    3.991 --     9 H    0.986     7 H    0.985     2 C    0.982
                             8 H    0.982
     2   6 C    3.988 --     6 N    1.031     1 C    0.982    10 H    0.950
                             3 C    0.941
     3   6 C    3.902 --     4 O    1.768     5 O    1.134     2 C    0.941
     4   8 O    2.039 --     3 C    1.768     5 O    0.172
     5   8 O    2.199 --     3 C    1.134    11 H    0.865     4 O    0.172
     6   7 N    3.015 --     2 C    1.031    12 H    0.964    13 H    0.959
     7   1 H    0.997 --     1 C    0.985
     8   1 H    0.996 --     1 C    0.982
     9   1 H    0.998 --     1 C    0.986
    10   1 H    0.996 --     2 C    0.950
    11   1 H    0.891 --     5 O    0.865
    12   1 H    0.979 --     6 N    0.964
    13   1 H    0.976 --     6 N    0.959
 ---------------------------------------------------------------------------

molecular dipole:
                 x           y           z       tot (Debye)
 q only:       -0.062      -0.638       0.170
   full:        0.412      -0.528       0.103       1.723

 projected vibrational frequencies (cm⁻¹)
eigval :       -0.00    -0.00    -0.00     0.00     0.00     0.00
eigval :       43.74   199.69   202.32   213.98   275.90   356.31
eigval :      472.46   591.40   625.59   714.44   802.98   949.70
eigval :      968.57   994.60  1067.30  1120.05  1154.75  1205.04
eigval :     1226.76  1266.79  1318.64  1392.33  1477.98  1488.63
eigval :     1565.70  1787.38  2930.47  3034.63  3054.21  3058.41
eigval :     3387.68  3414.24  3432.96

   temp. (K)  partition function   enthalpy   heat capacity  entropy
                                   cal/mol     cal/K/mol   cal/K/mol   J/K/mol
 298.15  VIB   48.5                 2714.346     18.001     15.933
         ROT  0.144E+06              888.752      2.981     26.579
         INT  0.697E+07             3603.098     20.982     42.512
         TR   0.814E+27             1481.254      4.968     39.356
         TOT                        5084.3522    25.9500    81.8674   342.5334

       T/K    H(0)-H(T)+PV         H(T)/Eh          T*S/Eh         G(T)/Eh
   ------------------------------------------------------------------------
    298.15    0.810243E-02    0.112433E+00    0.388979E-01    0.735347E-01
   ------------------------------------------------------------------------

         :::::::::::::::::::::::::::::::::::::::::::::::::::::
         ::                  THERMODYNAMIC                  ::
         :::::::::::::::::::::::::::::::::::::::::::::::::::::
         :: total free energy         -20.971349473946 Eh   ::
         ::.................................................::
         :: total energy              -21.044884176721 Eh   ::
         :: zero point energy           0.104330135872 Eh   ::
         :: G(RRHO) w/o ZPVE           -0.030795433097 Eh   ::
         :: G(RRHO) contrib.            0.073534702775 Eh   ::
         :::::::::::::::::::::::::::::::::::::::::::::::::::::

           -------------------------------------------------
          | TOTAL ENERGY              -21.044884176721 Eh   |
          | TOTAL ENTHALPY            -20.932451609926 Eh   |
          | TOTAL FREE ENERGY         -20.971349473946 Eh   |
          | GRADIENT NORM               0.000077267342 Eh/α |
          | HOMO-LUMO GAP               3.691352916896 eV   |
           -------------------------------------------------

 * finished run on 2025/07/30 at 12:34:39.563
