   * xtb version 6.6.0 (8843059) compiled by 'stahn@majestix' on 2023-02-09
          program call               : xtb --gfn2 in.xyz --ohess vtight

   ID    Z sym.   atoms
    1    6 C      1-4, 8, 10
    2    8 O      5, 6
    3    7 N      7, 9, 11, 12
    4    1 H      13-26

          :  Hamiltonian                  GFN2-xTB          :
 * total energy  :   -39.8318593 Eh     change       -0.6587442E-10 Eh
   *** GEOMETRY OPTIMIZATION CONVERGED AFTER 1 ITERATIONS ***

 final structure:
================
26
 xtb: 6.6.0 (8843059)
C           -0.96878000000000        2.22546600000000       -0.35711800000000
C           -2.00152900000000        1.28219600000000        0.23392600000000
C           -1.78576500000000       -0.08765100000000       -0.39014300000000
C           -0.37000700000000       -0.63614000000000       -0.06860700000000
O           -0.14573000000000       -1.64222100000000       -0.98491300000000
O           -0.37948000000000       -1.12524600000000        1.24200100000000
N           -2.81894100000000       -1.01095000000000        0.02441800000000
C            0.43248300000000        1.79150500000000        0.05323900000000
N            0.69935100000000        0.38084200000000       -0.18798800000000
C            1.96943100000000       -0.08953600000000        0.03660400000000
N            2.99608900000000        0.82658400000000        0.09061900000000
N            2.16884500000000       -1.35716400000000        0.12178200000000
H           -1.05358100000000        2.21573700000000       -1.44493700000000
H           -1.12361900000000        3.24815200000000       -0.00926700000000
H           -3.01546100000000        1.61305200000000        0.01286900000000
H           -1.88507000000000        1.21069800000000        1.31662100000000
H           -1.83540800000000       -0.00420600000000       -1.48141900000000
H            0.44800100000000       -1.61859200000000        1.35616900000000
H           -2.67022200000000       -1.90062300000000       -0.44108000000000
H           -2.72727800000000       -1.17830600000000        1.02243300000000
H            1.15215700000000        2.37519000000000       -0.52956800000000
H            0.56741200000000        2.01637500000000        1.12366400000000
H            3.89201000000000        0.44923800000000        0.35473500000000
H            2.82582700000000        1.76544200000000        0.40290300000000
H            3.14285200000000       -1.61329500000000        0.23288200000000
H            0.76216500000000       -1.97523800000000       -0.81133900000000

          :  Hamiltonian                  GFN2-xTB          :
         :: gradient norm              0.000164414567 Eh/a0 ::
         :: HOMO-LUMO gap              4.623129693760 eV    ::
         :: SCC energy               -40.249395436808 Eh    ::
         :: -> dispersion             -0.023004731642 Eh    ::
         :: repulsion energy           0.417332170814 Eh    ::

    * Orbital Energies and Occupations

         #    Occupation            Energy/Eh            Energy/eV
      -------------------------------------------------------------
         1        2.0000           -0.6987999             -19.0153
       ...           ...                  ...                  ...
        23        2.0000           -0.4877458             -13.2722
        24        2.0000           -0.4833991             -13.1540
        25        2.0000           -0.4787886             -13.0285
        26        2.0000           -0.4548405             -12.3768
        27        2.0000           -0.4506341             -12.2624
        28        2.0000           -0.4405635             -11.9883
        29        2.0000           -0.4333638             -11.7924
        30        2.0000           -0.4290432             -11.6749
        31        2.0000           -0.4236588             -11.5283
        32        2.0000           -0.4075079             -11.0889
        33        2.0000           -0.3857566             -10.4970
        34        2.0000           -0.3756511             -10.2220
        35        2.0000           -0.3591759              -9.7737 (HOMO)
        36                         -0.1892790              -5.1505 (LUMO)
        37                         -0.0277151              -0.7542
        38                          0.0176496               0.4803
        39                          0.0316516               0.8613
        40                          0.0567508               1.5443
        41                          0.0720555               1.9607
        42                          0.0812805               2.2118
        43                          0.1047355               2.8500
        44                          0.1135943               3.0911
        45                          0.1164574               3.1690
        46                          0.1262777               3.4362
       ...                                ...                  ...
        62                          0.5423264              14.7575
      -------------------------------------------------------------
                  HL-Gap            0.1698969 Eh            4.6231 eV

     #   Z          covCN         q      C6AA      α(0)
     1   6 C        3.809    -0.067    21.772     6.642
     2   6 C        3.810    -0.072    21.869     6.657
     3   6 C        3.790     0.047    19.798     6.337
     4   6 C        3.602     0.325    16.227     5.825
     5   8 O        1.657    -0.470    22.260     6.369
     6   8 O        1.656    -0.472    22.294     6.374
     7   7 N        2.632    -0.340    28.762     7.965
     8   6 C        3.746     0.013    20.421     6.446
     9   7 N        2.742    -0.178    24.856     7.405
    10   6 C        2.757     0.239    23.000     7.853
    11   7 N        2.642    -0.307    27.917     7.847
    12   7 N        1.789    -0.463    33.190     8.533
    13   1 H        0.924     0.049     2.331     2.388
    14   1 H        0.924     0.046     2.373     2.409
    15   1 H        0.925     0.057     2.237     2.339
    16   1 H        0.924     0.051     2.307     2.375
    17   1 H        0.924     0.048     2.344     2.394
    18   1 H        0.804     0.314     0.679     1.295
    19   1 H        0.860     0.157     1.357     1.825
    20   1 H        0.860     0.157     1.354     1.823
    21   1 H        0.924     0.045     2.378     2.412
    22   1 H        0.923     0.028     2.612     2.527
    23   1 H        0.860     0.172     1.261     1.759
    24   1 H        0.860     0.169     1.281     1.773
    25   1 H        0.860     0.124     1.594     1.978
    26   1 H        0.803     0.329     0.641     1.258

Wiberg/Mayer (AO) data.
largest (>0.10) Wiberg bond orders for each atom

     #   Z sym  total        # sym  WBO       # sym  WBO       # sym  WBO
 ---------------------------------------------------------------------------
     1   6 C    3.995 --     2 C    1.009     8 C    1.005    13 H    0.976
                            14 H    0.974
     2   6 C    3.995 --     1 C    1.009     3 C    0.995    16 H    0.974
                            15 H    0.974
     3   6 C    3.987 --     7 N    1.033     2 C    0.995    17 H    0.962
                             4 C    0.934
     4   6 C    3.920 --     5 O    1.018     6 O    0.981     3 C    0.934
                             9 N    0.914
     5   8 O    1.978 --     4 C    1.018    26 H    0.814
     6   8 O    1.974 --     4 C    0.981    18 H    0.863
     7   7 N    3.015 --     3 C    1.033    19 H    0.960    20 H    0.957
     8   6 C    3.978 --     1 C    1.005     9 N    0.986    22 H    0.967
                            21 H    0.966
     9   7 N    3.374 --    10 C    1.173     8 C    0.986     4 C    0.914
                            12 N    0.118
    10   6 C    3.962 --    12 N    1.594     9 N    1.173    11 N    1.148
    11   7 N    3.252 --    10 C    1.148    23 H    0.950    24 H    0.942
                            12 N    0.136
    12   7 N    2.948 --    10 C    1.594    25 H    0.952    11 N    0.136
                             9 N    0.118
    13   1 H    0.998 --     1 C    0.976
    14   1 H    0.997 --     1 C    0.974
    15   1 H    0.997 --     2 C    0.974
    16   1 H    0.997 --     2 C    0.974
    17   1 H    0.998 --     3 C    0.962
    18   1 H    0.901 --     6 O    0.863
    19   1 H    0.975 --     7 N    0.960
    20   1 H    0.975 --     7 N    0.957
    21   1 H    0.998 --     8 C    0.966
    22   1 H    0.999 --     8 C    0.967
    23   1 H    0.970 --    11 N    0.950
    24   1 H    0.972 --    11 N    0.942
    25   1 H    0.984 --    12 N    0.952
    26   1 H    0.892 --     5 O    0.814
 ---------------------------------------------------------------------------

molecular dipole:
                 x           y           z       tot (Debye)
 q only:        0.620       1.160       0.257
   full:        1.731       1.303       0.687       5.777

 projected vibrational frequencies (cm⁻¹)
eigval :       -0.00    -0.00    -0.00     0.00     0.00     0.00
eigval :       50.82    73.11   111.31   148.51   228.85   259.22
eigval :      287.65   296.13   317.43   329.40   348.83   393.57
eigval :      404.73   443.24   460.55   487.12   498.12   518.68
eigval :      558.57   588.79   613.96   650.74   682.82   730.68
eigval :      747.35   875.10   888.66   930.35   958.44   992.56
eigval :     1007.28  1025.94  1035.00  1053.82  1076.68  1088.99
eigval :     1118.75  1138.37  1148.23  1171.37  1182.48  1201.83
eigval :     1232.65  1247.84  1263.97  1296.05  1312.42  1345.67
eigval :     1351.77  1365.24  1372.33  1411.35  1466.68  1475.52
eigval :     1484.88  1507.12  1560.48  1651.45  2840.11  2931.27
eigval :     2939.46  2980.59  2988.45  2996.33  3010.06  3169.88
eigval :     3384.01  3405.99  3412.34  3427.87  3476.20  3535.76

   temp. (K)  partition function   enthalpy   heat capacity  entropy
                                   cal/mol     cal/K/mol   cal/K/mol   J/K/mol
 298.15  VIB  0.193E+04             5915.243     42.244     34.080
         ROT  0.976E+06              888.752      2.981     30.387
         INT  0.188E+10             6803.996     45.225     64.468
         TR   0.222E+28             1481.254      4.968     41.354
         TOT                        8285.2497    50.1929   105.8215   442.7573

       T/K    H(0)-H(T)+PV         H(T)/Eh          T*S/Eh         G(T)/Eh
   ------------------------------------------------------------------------
    298.15    0.132034E-01    0.229556E+00    0.502792E-01    0.179277E+00
   ------------------------------------------------------------------------

         :::::::::::::::::::::::::::::::::::::::::::::::::::::
         ::                  THERMODYNAMIC                  ::
         :::::::::::::::::::::::::::::::::::::::::::::::::::::
         :: total free energy         -39.652582594720 Eh   ::
         ::.................................................::
         :: total energy              -39.831859292262 Eh   ::
         :: zero point energy           0.216352542478 Eh   ::
         :: G(RRHO) w/o ZPVE           -0.037075844937 Eh   ::
         :: G(RRHO) contrib.            0.179276697542 Eh   ::
         :::::::::::::::::::::::::::::::::::::::::::::::::::::

           -------------------------------------------------
          | TOTAL ENERGY              -39.831859292262 Eh   |
          | TOTAL ENTHALPY            -39.602303363892 Eh   |
          | TOTAL FREE ENERGY         -39.652582594720 Eh   |
          | GRADIENT NORM               0.000164406422 Eh/α |
          | HOMO-LUMO GAP               4.623129599470 eV   |
           -------------------------------------------------

 * finished run on 2025/07/30 at 12:34:48.629
