   * xtb version 6.6.0 (8843059) compiled by 'stahn@majestix' on 2023-02-09
          program call               : xtb --gfn2 in.xyz --opt vtight

   ID    Z sym.   atoms
    1    6 C      1-3
    2    8 O      4, 5
    3    7 N      6
    4    1 H      7-13

          :  Hamiltonian                  GFN2-xTB          :
 * total energy  :   -21.0155569 Eh     change       -0.3408545E-09 Eh
 * total energy  :   -21.0328802 Eh     change       -0.1732330E-01 Eh
 * total energy  :   -21.0373531 Eh     change       -0.4472962E-02 Eh
 * total energy  :   -21.0382786 Eh     change       -0.9254982E-03 Eh
 * total energy  :   -21.0388861 Eh     change       -0.6074349E-03 Eh
 * total energy  :   -21.0393943 Eh     change       -0.5081926E-03 Eh
 * total energy  :   -21.0399364 Eh     change       -0.5421428E-03 Eh
 * total energy  :   -21.0402475 Eh     change       -0.3111277E-03 Eh
 * total energy  :   -21.0404945 Eh     change       -0.2469874E-03 Eh
 * total energy  :   -21.0407890 Eh     change       -0.2944651E-03 Eh
 * total energy  :   -21.0416418 Eh     change       -0.8505515E-05 Eh
 * total energy  :   -21.0416484 Eh     change       -0.6516133E-05 Eh
 * total energy  :   -21.0416523 Eh     change       -0.3916286E-05 Eh
 * total energy  :   -21.0416572 Eh     change       -0.4876521E-05 Eh
 * total energy  :   -21.0416600 Eh     change       -0.2812207E-05 Eh
 * total energy  :   -21.0416607 Eh     change       -0.6890939E-06 Eh
 * total energy  :   -21.0416612 Eh     change       -0.5542632E-06 Eh
 * total energy  :   -21.0416614 Eh     change       -0.1864394E-06 Eh
 * total energy  :   -21.0416614 Eh     change       -0.1599619E-07 Eh
   *** GEOMETRY OPTIMIZATION CONVERGED AFTER 34 ITERATIONS ***

 final structure:
================
13
 xtb: 6.6.0 (8843059)
C           -0.93977390293634        0.55345507451322        1.05460468285850
C            0.57714380407414        0.82004934433290        0.98434028896666
C            1.24865135776255       -0.51439056609866        0.71024746535328
O            1.68996929588782       -1.24638097304047        1.55318754566434
O            1.24445889587414       -0.83383366714793       -0.58865831486709
N            0.97069441169192        1.79550011973106       -0.01326659189188
H           -1.30048141017629        0.19220287719720        0.09292470006947
H           -1.15802472652936       -0.19068521653294        1.81608514597805
H           -1.46409304091275        1.47369788571365        1.30454580356924
H            0.92636382163530        1.17024610432299        1.96208644246308
H            1.67005317303454       -1.69559117524496       -0.72077078481847
H            0.75788343593162        1.44979721425000       -0.94286639389150
H            0.46385488466272        2.66233297800397        0.12774001054629

          :  Hamiltonian                  GFN2-xTB          :
         :: total energy             -21.041661409311 Eh    ::
         :: gradient norm              0.000052828363 Eh/a0 ::
         :: HOMO-LUMO gap              3.763625459593 eV    ::
         :: SCC energy               -21.251549945132 Eh    ::
         :: -> dispersion             -0.007029408348 Eh    ::
         :: repulsion energy           0.209877709012 Eh    ::

    * Orbital Energies and Occupations

         #    Occupation            Energy/Eh            Energy/eV
      -------------------------------------------------------------
         1        2.0000           -0.7497460             -20.4016
       ...           ...                  ...                  ...
         6        2.0000           -0.6015120             -16.3680
         7        2.0000           -0.5915262             -16.0962
         8        2.0000           -0.5770935             -15.7035
         9        2.0000           -0.5574231             -15.1683
        10        2.0000           -0.5312593             -14.4563
        11        2.0000           -0.5109070             -13.9025
        12        2.0000           -0.5019218             -13.6580
        13        2.0000           -0.4916168             -13.3776
        14        2.0000           -0.4810003             -13.0887
        15        2.0000           -0.4785898             -13.0231
        16        2.0000           -0.4596638             -12.5081
        17        2.0000           -0.4211178             -11.4592
        18        2.0000           -0.3776410             -10.2761 (HOMO)
        19                         -0.2393303              -6.5125 (LUMO)
        20                          0.0358456               0.9754
        21                          0.0535051               1.4559
        22                          0.0864861               2.3534
        23                          0.1195211               3.2523
        24                          0.1412457               3.8435
        25                          0.1637752               4.4566
        26                          0.1925219               5.2388
        27                          0.2176568               5.9227
        28                          0.2221942               6.0462
        29                          0.2552519               6.9458
       ...                                ...                  ...
        31                          0.6396480              17.4057
      -------------------------------------------------------------
                  HL-Gap            0.1383107 Eh            3.7636 eV

     #   Z          covCN         q      C6AA      α(0)
     1   6 C        3.756    -0.114    22.735     6.798
     2   6 C        3.782     0.033    20.043     6.378
     3   6 C        2.696     0.358    20.925     7.487
     4   8 O        0.856    -0.403    21.750     6.253
     5   8 O        1.659    -0.368    20.246     6.074
     6   7 N        2.632    -0.341    28.774     7.967
     7   1 H        0.925     0.046     2.372     2.408
     8   1 H        0.925     0.048     2.345     2.395
     9   1 H        0.925     0.048     2.351     2.398
    10   1 H        0.924     0.061     2.191     2.315
    11   1 H        0.804     0.331     0.635     1.252
    12   1 H        0.860     0.156     1.363     1.829
    13   1 H        0.860     0.147     1.421     1.868

Wiberg/Mayer (AO) data.
largest (>0.10) Wiberg bond orders for each atom

     #   Z sym  total        # sym  WBO       # sym  WBO       # sym  WBO
 ---------------------------------------------------------------------------
     1   6 C    3.994 --     7 H    0.987     8 H    0.985     9 H    0.983
                             2 C    0.969
     2   6 C    3.987 --     6 N    1.025     1 C    0.969    10 H    0.960
                             3 C    0.952
     3   6 C    3.911 --     4 O    1.775     5 O    1.138     2 C    0.952
     4   8 O    2.044 --     3 C    1.775     5 O    0.175
     5   8 O    2.208 --     3 C    1.138    11 H    0.865     4 O    0.175
     6   7 N    3.011 --     2 C    1.025    13 H    0.963    12 H    0.959
     7   1 H    0.998 --     1 C    0.987
     8   1 H    0.998 --     1 C    0.985
     9   1 H    0.998 --     1 C    0.983
    10   1 H    0.996 --     2 C    0.960
    11   1 H    0.890 --     5 O    0.865
    12   1 H    0.976 --     6 N    0.959
    13   1 H    0.978 --     6 N    0.963
 ---------------------------------------------------------------------------

molecular dipole:
                 x           y           z       tot (Debye)
 q only:       -0.544       0.330      -0.629
   full:       -0.863       0.230      -0.776       3.008

           -------------------------------------------------
          | TOTAL ENERGY              -21.041661409311 Eh   |
          | GRADIENT NORM               0.000052828363 Eh/α |
          | HOMO-LUMO GAP               3.763625459593 eV   |
           -------------------------------------------------

 * finished run on 2025/07/30 at 12:16:26.710
