   * xtb version 6.6.0 (8843059) compiled by 'stahn@majestix' on 2023-02-09
          program call               : xtb --gfn2 in.xyz --ohess vtight

   ID    Z sym.   atoms
    1    6 C      1-4, 8, 10
    2    8 O      5, 6
    3    7 N      7, 9, 11, 12
    4    1 H      13-26

          :  Hamiltonian                  GFN2-xTB          :
 * total energy  :   -39.8332962 Eh     change       -0.5650946E-10 Eh
   *** GEOMETRY OPTIMIZATION CONVERGED AFTER 1 ITERATIONS ***

 final structure:
================
26
 xtb: 6.6.0 (8843059)
C           -0.80196700000000        2.02529300000000        0.60451200000000
C           -2.06209000000000        1.27008900000000        0.18202800000000
C           -1.72203400000000       -0.04425300000000       -0.52996100000000
C           -0.37263300000000       -0.62196300000000       -0.03633600000000
O           -0.13138400000000       -1.77263100000000       -0.77473100000000
O           -0.45993300000000       -0.90603000000000        1.32156400000000
N           -2.80386800000000       -0.99035100000000       -0.36163900000000
C            0.34421600000000        1.74654700000000       -0.36494200000000
N            0.70570800000000        0.34196600000000       -0.29807000000000
C            1.97698300000000       -0.07244400000000       -0.01759900000000
N            2.99505100000000        0.80956600000000       -0.32689000000000
N            2.15484000000000       -1.22755500000000        0.51328900000000
H           -0.99463800000000        3.09782200000000        0.64411000000000
H           -0.49157600000000        1.69405000000000        1.59652600000000
H           -2.66896000000000        1.87567200000000       -0.49062900000000
H           -2.66554000000000        1.03968100000000        1.05929300000000
H           -1.59714000000000        0.12348100000000       -1.60501700000000
H            0.39911600000000       -1.28725500000000        1.57424100000000
H           -2.58139100000000       -1.83717600000000       -0.87583500000000
H           -2.85892800000000       -1.24573500000000        0.62063700000000
H            0.04450400000000        2.00563100000000       -1.38830100000000
H            1.20983900000000        2.34857700000000       -0.08322100000000
H            3.92160000000000        0.41255300000000       -0.29981100000000
H            2.84318100000000        1.44311500000000       -1.09441500000000
H            3.12880700000000       -1.48386100000000        0.62796400000000
H            0.71905300000000       -2.12765800000000       -0.45432500000000

          :  Hamiltonian                  GFN2-xTB          :
         :: gradient norm              0.000057174124 Eh/a0 ::
         :: HOMO-LUMO gap              4.594297997494 eV    ::
         :: SCC energy               -40.251564857325 Eh    ::
         :: -> dispersion             -0.023257014611 Eh    ::
         :: repulsion energy           0.418062201349 Eh    ::

    * Orbital Energies and Occupations

         #    Occupation            Energy/Eh            Energy/eV
      -------------------------------------------------------------
         1        2.0000           -0.6995117             -19.0347
       ...           ...                  ...                  ...
        23        2.0000           -0.4890526             -13.3078
        24        2.0000           -0.4850941             -13.2001
        25        2.0000           -0.4771942             -12.9851
        26        2.0000           -0.4638169             -12.6211
        27        2.0000           -0.4475115             -12.1774
        28        2.0000           -0.4351260             -11.8404
        29        2.0000           -0.4317309             -11.7480
        30        2.0000           -0.4277678             -11.6402
        31        2.0000           -0.4256747             -11.5832
        32        2.0000           -0.4067587             -11.0685
        33        2.0000           -0.3865000             -10.5172
        34        2.0000           -0.3767115             -10.2508
        35        2.0000           -0.3595608              -9.7841 (HOMO)
        36                         -0.1907235              -5.1899 (LUMO)
        37                         -0.0217307              -0.5913
        38                          0.0298546               0.8124
        39                          0.0377056               1.0260
        40                          0.0636091               1.7309
        41                          0.0666713               1.8142
        42                          0.0812487               2.2109
        43                          0.0981226               2.6701
        44                          0.1107954               3.0149
        45                          0.1207917               3.2869
        46                          0.1378104               3.7500
       ...                                ...                  ...
        62                          0.5529039              15.0453
      -------------------------------------------------------------
                  HL-Gap            0.1688373 Eh            4.5943 eV

     #   Z          covCN         q      C6AA      α(0)
     1   6 C        3.805    -0.067    21.787     6.645
     2   6 C        3.807    -0.072    21.872     6.658
     3   6 C        3.784     0.048    19.791     6.337
     4   6 C        3.604     0.326    16.202     5.818
     5   8 O        1.657    -0.470    22.260     6.369
     6   8 O        1.656    -0.466    22.169     6.356
     7   7 N        2.632    -0.341    28.785     7.968
     8   6 C        3.744     0.005    20.560     6.468
     9   7 N        2.750    -0.179    24.875     7.407
    10   6 C        2.750     0.240    22.992     7.852
    11   7 N        2.641    -0.312    28.027     7.863
    12   7 N        1.789    -0.463    33.200     8.534
    13   1 H        0.924     0.042     2.417     2.431
    14   1 H        0.924     0.056     2.250     2.346
    15   1 H        0.925     0.046     2.367     2.406
    16   1 H        0.925     0.060     2.194     2.316
    17   1 H        0.924     0.040     2.453     2.449
    18   1 H        0.804     0.320     0.663     1.279
    19   1 H        0.860     0.158     1.351     1.821
    20   1 H        0.860     0.156     1.360     1.827
    21   1 H        0.924     0.038     2.478     2.462
    22   1 H        0.924     0.051     2.313     2.378
    23   1 H        0.860     0.171     1.270     1.765
    24   1 H        0.860     0.169     1.278     1.771
    25   1 H        0.860     0.123     1.599     1.981
    26   1 H        0.804     0.322     0.658     1.274

Wiberg/Mayer (AO) data.
largest (>0.10) Wiberg bond orders for each atom

     #   Z sym  total        # sym  WBO       # sym  WBO       # sym  WBO
 ---------------------------------------------------------------------------
     1   6 C    3.995 --     2 C    1.006     8 C    1.001    14 H    0.977
                            13 H    0.976
     2   6 C    3.995 --     1 C    1.006     3 C    0.991    15 H    0.980
                            16 H    0.974
     3   6 C    3.987 --     7 N    1.033     2 C    0.991    17 H    0.965
                             4 C    0.936
     4   6 C    3.923 --     5 O    0.999     6 O    0.994     3 C    0.936
                             9 N    0.923
     5   8 O    1.973 --     4 C    0.999    26 H    0.841
     6   8 O    1.979 --     4 C    0.994    18 H    0.853
     7   7 N    3.013 --     3 C    1.033    20 H    0.958    19 H    0.958
     8   6 C    3.974 --     1 C    1.001     9 N    0.984    21 H    0.969
                            22 H    0.968
     9   7 N    3.382 --    10 C    1.175     8 C    0.984     4 C    0.923
                            12 N    0.120
    10   6 C    3.962 --    12 N    1.606     9 N    1.175    11 N    1.132
    11   7 N    3.232 --    10 C    1.132    23 H    0.951    24 H    0.947
                            12 N    0.131
    12   7 N    2.939 --    10 C    1.606    25 H    0.954    11 N    0.131
                             9 N    0.120
    13   1 H    0.997 --     1 C    0.976
    14   1 H    0.997 --     1 C    0.977
    15   1 H    0.998 --     2 C    0.980
    16   1 H    0.996 --     2 C    0.974
    17   1 H    0.998 --     3 C    0.965
    18   1 H    0.897 --     6 O    0.853
    19   1 H    0.975 --     7 N    0.958
    20   1 H    0.976 --     7 N    0.958
    21   1 H    0.999 --     8 C    0.969
    22   1 H    0.997 --     8 C    0.968
    23   1 H    0.970 --    11 N    0.951
    24   1 H    0.971 --    11 N    0.947
    25   1 H    0.985 --    12 N    0.954
    26   1 H    0.896 --     5 O    0.841
 ---------------------------------------------------------------------------

molecular dipole:
                 x           y           z       tot (Debye)
 q only:        0.633       1.005      -0.212
   full:        1.750       1.010      -0.306       5.194

 projected vibrational frequencies (cm⁻¹)
eigval :       -0.00    -0.00    -0.00     0.00     0.00     0.00
eigval :       73.57    84.34   108.97   137.99   193.25   243.82
eigval :      280.33   297.80   322.36   326.22   373.21   403.03
eigval :      407.04   445.80   484.91   506.45   520.78   531.96
eigval :      564.23   590.12   627.92   641.76   662.75   739.81
eigval :      744.70   858.62   874.03   936.73   945.21  1001.34
eigval :     1012.87  1031.17  1037.95  1068.43  1083.14  1085.58
eigval :     1120.17  1135.05  1157.03  1172.93  1179.24  1204.91
eigval :     1235.19  1240.39  1255.01  1296.68  1317.85  1331.59
eigval :     1342.43  1354.94  1365.42  1424.93  1466.07  1470.63
eigval :     1487.13  1500.61  1563.75  1663.36  2897.46  2939.31
eigval :     2976.70  2985.26  2996.95  3003.19  3013.02  3310.84
eigval :     3369.89  3379.01  3403.42  3408.58  3457.17  3509.70

   temp. (K)  partition function   enthalpy   heat capacity  entropy
                                   cal/mol     cal/K/mol   cal/K/mol   J/K/mol
 298.15  VIB  0.142E+04             5877.116     42.455     33.868
         ROT  0.951E+06              888.752      2.981     30.337
         INT  0.135E+10             6765.868     45.436     64.204
         TR   0.222E+28             1481.254      4.968     41.354
         TOT                        8247.1221    50.4045   105.5578   441.6538

       T/K    H(0)-H(T)+PV         H(T)/Eh          T*S/Eh         G(T)/Eh
   ------------------------------------------------------------------------
    298.15    0.131426E-01    0.229988E+00    0.501539E-01    0.179834E+00
   ------------------------------------------------------------------------

         :::::::::::::::::::::::::::::::::::::::::::::::::::::
         ::                  THERMODYNAMIC                  ::
         :::::::::::::::::::::::::::::::::::::::::::::::::::::
         :: total free energy         -39.653462363090 Eh   ::
         ::.................................................::
         :: total energy              -39.833296174492 Eh   ::
         :: zero point energy           0.216845101245 Eh   ::
         :: G(RRHO) w/o ZPVE           -0.037011289843 Eh   ::
         :: G(RRHO) contrib.            0.179833811402 Eh   ::
         :::::::::::::::::::::::::::::::::::::::::::::::::::::

           -------------------------------------------------
          | TOTAL ENERGY              -39.833296174492 Eh   |
          | TOTAL ENTHALPY            -39.603308447615 Eh   |
          | TOTAL FREE ENERGY         -39.653462363090 Eh   |
          | GRADIENT NORM               0.000057173511 Eh/α |
          | HOMO-LUMO GAP               4.594297564386 eV   |
           -------------------------------------------------

 * finished run on 2025/07/30 at 12:34:44.125
