   * xtb version 6.6.0 (8843059) compiled by 'stahn@majestix' on 2023-02-09
          program call               : xtb --gfn2 in.xyz --ohess vtight

   ID    Z sym.   atoms
    1    6 C      1-4, 8, 10
    2    8 O      5, 6
    3    7 N      7, 9, 11, 12
    4    1 H      13-26

          :  Hamiltonian                  GFN2-xTB          :
 * total energy  :   -39.8296375 Eh     change       -0.3605294E-10 Eh
   *** GEOMETRY OPTIMIZATION CONVERGED AFTER 1 ITERATIONS ***

 final structure:
================
26
 xtb: 6.6.0 (8843059)
C           -0.68443600000000        2.07129000000000       -0.35038700000000
C           -1.92994300000000        1.19363500000000       -0.23367600000000
C           -1.60317200000000       -0.20041900000000        0.30988500000000
C           -0.45018900000000       -0.86403600000000       -0.51094900000000
O           -0.87364500000000       -1.01143000000000       -1.83110500000000
O           -0.14177100000000       -2.10696000000000       -0.01907300000000
N           -1.32017600000000       -0.14889100000000        1.73072500000000
C            0.36630300000000        1.31048200000000       -1.15731000000000
N            0.71443400000000        0.06252200000000       -0.49870500000000
C            1.62752600000000        0.01331200000000        0.51696800000000
N            2.26190400000000        1.18460600000000        0.88438900000000
N            1.87009300000000       -1.10275600000000        1.10666000000000
H           -0.93381100000000        3.00706400000000       -0.85261400000000
H           -0.29496700000000        2.30867900000000        0.64177000000000
H           -2.37489200000000        1.07385000000000       -1.22197800000000
H           -2.66045500000000        1.65569700000000        0.43062900000000
H           -2.47578200000000       -0.84916200000000        0.17878100000000
H            0.68535700000000       -2.01851300000000        0.53885500000000
H           -1.16079200000000       -1.09022500000000        2.07457500000000
H           -0.47345500000000        0.38333800000000        1.90580100000000
H           -0.05880100000000        1.03277400000000       -2.12501200000000
H            1.26247600000000        1.90432900000000       -1.34754500000000
H            3.11849100000000        1.06331500000000        1.40136900000000
H            2.26183900000000        1.97325500000000        0.26142000000000
H            2.56398700000000       -1.04883900000000        1.84092400000000
H           -0.47994700000000       -1.82960700000000       -2.16085600000000

          :  Hamiltonian                  GFN2-xTB          :
         :: gradient norm              0.000077500070 Eh/a0 ::
         :: HOMO-LUMO gap              4.486290831992 eV    ::
         :: SCC energy               -40.244906172741 Eh    ::
         :: -> dispersion             -0.024584692395 Eh    ::
         :: repulsion energy           0.414986858083 Eh    ::

    * Orbital Energies and Occupations

         #    Occupation            Energy/Eh            Energy/eV
      -------------------------------------------------------------
         1        2.0000           -0.7016881             -19.0939
       ...           ...                  ...                  ...
        23        2.0000           -0.4888391             -13.3020
        24        2.0000           -0.4842692             -13.1776
        25        2.0000           -0.4742781             -12.9058
        26        2.0000           -0.4697578             -12.7828
        27        2.0000           -0.4538039             -12.3486
        28        2.0000           -0.4458937             -12.1334
        29        2.0000           -0.4349976             -11.8369
        30        2.0000           -0.4294714             -11.6865
        31        2.0000           -0.4199270             -11.4268
        32        2.0000           -0.4062679             -11.0551
        33        2.0000           -0.3858021             -10.4982
        34        2.0000           -0.3806176             -10.3571
        35        2.0000           -0.3544092              -9.6440 (HOMO)
        36                         -0.1895411              -5.1577 (LUMO)
        37                         -0.0192991              -0.5252
        38                          0.0153661               0.4181
        39                          0.0384971               1.0476
        40                          0.0431193               1.1733
        41                          0.0664447               1.8081
        42                          0.0759972               2.0680
        43                          0.0915986               2.4925
        44                          0.1025014               2.7892
        45                          0.1134670               3.0876
        46                          0.1284954               3.4965
       ...                                ...                  ...
        62                          0.5393309              14.6759
      -------------------------------------------------------------
                  HL-Gap            0.1648681 Eh            4.4863 eV

     #   Z          covCN         q      C6AA      α(0)
     1   6 C        3.803    -0.066    21.760     6.641
     2   6 C        3.808    -0.071    21.855     6.655
     3   6 C        3.782     0.033    20.040     6.377
     4   6 C        3.602     0.325    16.229     5.825
     5   8 O        1.657    -0.453    21.908     6.319
     6   8 O        1.652    -0.489    22.652     6.425
     7   7 N        2.631    -0.346    28.906     7.985
     8   6 C        3.757     0.006    20.532     6.460
     9   7 N        2.744    -0.179    24.867     7.406
    10   6 C        2.742     0.237    23.045     7.860
    11   7 N        2.642    -0.312    28.025     7.862
    12   7 N        1.823    -0.447    32.731     8.477
    13   1 H        0.924     0.039     2.461     2.453
    14   1 H        0.924     0.042     2.419     2.432
    15   1 H        0.924     0.052     2.301     2.372
    16   1 H        0.925     0.054     2.268     2.355
    17   1 H        0.924     0.050     2.316     2.380
    18   1 H        0.833     0.339     0.611     1.225
    19   1 H        0.860     0.153     1.382     1.841
    20   1 H        0.860     0.139     1.479     1.905
    21   1 H        0.924     0.071     2.072     2.251
    22   1 H        0.924     0.032     2.565     2.504
    23   1 H        0.860     0.169     1.277     1.770
    24   1 H        0.860     0.169     1.278     1.771
    25   1 H        0.860     0.132     1.528     1.936
    26   1 H        0.805     0.320     0.663     1.279

Wiberg/Mayer (AO) data.
largest (>0.10) Wiberg bond orders for each atom

     #   Z sym  total        # sym  WBO       # sym  WBO       # sym  WBO
 ---------------------------------------------------------------------------
     1   6 C    3.997 --     2 C    1.009     8 C    0.998    13 H    0.975
                            14 H    0.974
     2   6 C    3.995 --     1 C    1.009     3 C    0.994    15 H    0.975
                            16 H    0.974
     3   6 C    3.985 --     7 N    1.029     2 C    0.994    17 H    0.961
                             4 C    0.915
     4   6 C    3.922 --     6 O    1.034     5 O    0.991     3 C    0.915
                             9 N    0.905
     5   8 O    1.986 --     4 C    0.991    26 H    0.875
     6   8 O    1.958 --     4 C    1.034    18 H    0.751
     7   7 N    3.017 --     3 C    1.029    19 H    0.960    20 H    0.959
     8   6 C    3.972 --     1 C    0.998     9 N    0.989    21 H    0.963
                            22 H    0.962
     9   7 N    3.374 --    10 C    1.179     8 C    0.989     4 C    0.905
                            12 N    0.116
    10   6 C    3.964 --    12 N    1.592     9 N    1.179    11 N    1.138
    11   7 N    3.243 --    10 C    1.138    23 H    0.950    24 H    0.939
                            12 N    0.134
    12   7 N    3.003 --    10 C    1.592    25 H    0.948    11 N    0.134
                             9 N    0.116    18 H    0.114
    13   1 H    0.998 --     1 C    0.975
    14   1 H    0.998 --     1 C    0.974
    15   1 H    0.997 --     2 C    0.975
    16   1 H    0.997 --     2 C    0.974
    17   1 H    0.997 --     3 C    0.961
    18   1 H    0.885 --     6 O    0.751    12 N    0.114
    19   1 H    0.977 --     7 N    0.960
    20   1 H    0.981 --     7 N    0.959
    21   1 H    0.995 --     8 C    0.963
    22   1 H    0.999 --     8 C    0.962
    23   1 H    0.971 --    11 N    0.950
    24   1 H    0.971 --    11 N    0.939
    25   1 H    0.982 --    12 N    0.948
    26   1 H    0.897 --     5 O    0.875
 ---------------------------------------------------------------------------

molecular dipole:
                 x           y           z       tot (Debye)
 q only:        0.575       1.127      -0.141
   full:        1.473       1.384      -0.138       5.150

 projected vibrational frequencies (cm⁻¹)
eigval :       -0.00    -0.00    -0.00     0.00     0.00     0.00
eigval :       41.57    77.82   112.23   203.68   231.22   276.49
eigval :      288.46   306.90   318.64   321.88   350.65   374.62
eigval :      413.01   432.95   472.30   494.18   512.02   538.77
eigval :      560.20   599.58   622.31   665.79   674.73   712.97
eigval :      730.50   862.28   870.65   904.22   936.57   973.56
eigval :     1003.22  1014.59  1029.15  1052.43  1067.31  1084.74
eigval :     1112.52  1123.96  1142.37  1159.93  1198.57  1203.82
eigval :     1226.53  1242.09  1271.91  1288.36  1317.15  1329.86
eigval :     1341.50  1344.33  1354.49  1415.42  1460.35  1477.73
eigval :     1485.58  1508.63  1563.98  1649.84  2757.86  2945.42
eigval :     2957.02  2973.62  2984.43  2989.79  2999.28  3003.84
eigval :     3384.85  3414.31  3421.77  3467.42  3514.77  3523.66

   temp. (K)  partition function   enthalpy   heat capacity  entropy
                                   cal/mol     cal/K/mol   cal/K/mol   J/K/mol
 298.15  VIB  0.169E+04             5845.392     42.123     33.254
         ROT  0.872E+06              888.752      2.981     30.164
         INT  0.148E+10             6734.144     45.103     63.418
         TR   0.222E+28             1481.254      4.968     41.354
         TOT                        8215.3982    50.0716   104.7717   438.3650

       T/K    H(0)-H(T)+PV         H(T)/Eh          T*S/Eh         G(T)/Eh
   ------------------------------------------------------------------------
    298.15    0.130921E-01    0.228810E+00    0.497804E-01    0.179029E+00
   ------------------------------------------------------------------------

         :::::::::::::::::::::::::::::::::::::::::::::::::::::
         ::                  THERMODYNAMIC                  ::
         :::::::::::::::::::::::::::::::::::::::::::::::::::::
         :: total free energy         -39.650608198750 Eh   ::
         ::.................................................::
         :: total energy              -39.829637544728 Eh   ::
         :: zero point energy           0.215717714194 Eh   ::
         :: G(RRHO) w/o ZPVE           -0.036688368216 Eh   ::
         :: G(RRHO) contrib.            0.179029345978 Eh   ::
         :::::::::::::::::::::::::::::::::::::::::::::::::::::

           -------------------------------------------------
          | TOTAL ENERGY              -39.829637544728 Eh   |
          | TOTAL ENTHALPY            -39.600827760173 Eh   |
          | TOTAL FREE ENERGY         -39.650608198750 Eh   |
          | GRADIENT NORM               0.000077507218 Eh/α |
          | HOMO-LUMO GAP               4.486290561038 eV   |
           -------------------------------------------------

 * finished run on 2025/07/30 at 12:34:52.640
