   * xtb version 6.6.0 (8843059) compiled by 'stahn@majestix' on 2023-02-09
          program call               : xtb --gfn2 in.xyz --ohess vtight

   ID    Z sym.   atoms
    1    6 C      1-3
    2    8 O      4, 5
    3    7 N      6
    4    1 H      7-13

          :  Hamiltonian                  GFN2-xTB          :
 * total energy  :   -21.0399168 Eh     change       -0.1302070E-09 Eh
   *** GEOMETRY OPTIMIZATION CONVERGED AFTER 1 ITERATIONS ***

 final structure:
================
13
 xtb: 6.6.0 (8843059)
C           -1.44574500000000       -0.51865400000000       -1.18030000000000
C           -0.67169300000000       -0.47813800000000        0.13448800000000
C            0.73811300000000        0.04751200000000       -0.09604800000000
O            1.32644000000000        0.01680400000000       -1.14181400000000
O            1.30368900000000        0.50326300000000        1.02910000000000
N           -1.36982600000000        0.35391500000000        1.09830700000000
H           -1.66726700000000        0.49624000000000       -1.49742000000000
H           -0.84952700000000       -1.00637700000000       -1.94553300000000
H           -2.37956600000000       -1.05913800000000       -1.05089200000000
H           -0.51770600000000       -1.51936100000000        0.49088800000000
H            2.20227300000000        0.81963100000000        0.84436200000000
H           -2.25184500000000       -0.07322100000000        1.35662900000000
H           -0.81344500000000        0.48079500000000        1.93548800000000

          :  Hamiltonian                  GFN2-xTB          :
         :: gradient norm              0.000153365637 Eh/a0 ::
         :: HOMO-LUMO gap              3.744940517319 eV    ::
         :: SCC energy               -21.249625194424 Eh    ::
         :: -> dispersion             -0.006946051101 Eh    ::
         :: repulsion energy           0.209698908998 Eh    ::

    * Orbital Energies and Occupations

         #    Occupation            Energy/Eh            Energy/eV
      -------------------------------------------------------------
         1        2.0000           -0.7496974             -20.4003
       ...           ...                  ...                  ...
         6        2.0000           -0.5955405             -16.2055
         7        2.0000           -0.5861747             -15.9506
         8        2.0000           -0.5817133             -15.8292
         9        2.0000           -0.5548097             -15.0971
        10        2.0000           -0.5285116             -14.3815
        11        2.0000           -0.5180889             -14.0979
        12        2.0000           -0.4997262             -13.5982
        13        2.0000           -0.4807321             -13.0814
        14        2.0000           -0.4731954             -12.8763
        15        2.0000           -0.4626622             -12.5897
        16        2.0000           -0.4600562             -12.5188
        17        2.0000           -0.4219478             -11.4818
        18        2.0000           -0.3757763             -10.2254 (HOMO)
        19                         -0.2381523              -6.4805 (LUMO)
        20                          0.0318009               0.8653
        21                          0.0467746               1.2728
        22                          0.0987399               2.6868
        23                          0.1121217               3.0510
        24                          0.1526174               4.1529
        25                          0.1733727               4.7177
        26                          0.1827359               4.9725
        27                          0.2370156               6.4495
        28                          0.2417853               6.5793
        29                          0.2593472               7.0572
       ...                                ...                  ...
        31                          0.6413057              17.4508
      -------------------------------------------------------------
                  HL-Gap            0.1376240 Eh            3.7449 eV

     #   Z          covCN         q      C6AA      α(0)
     1   6 C        3.757    -0.118    22.805     6.809
     2   6 C        3.780     0.042    19.884     6.352
     3   6 C        2.692     0.355    20.972     7.495
     4   8 O        0.856    -0.401    21.710     6.247
     5   8 O        1.659    -0.374    20.351     6.090
     6   7 N        2.634    -0.338    28.714     7.958
     7   1 H        0.925     0.063     2.168     2.303
     8   1 H        0.925     0.062     2.173     2.305
     9   1 H        0.925     0.047     2.356     2.400
    10   1 H        0.921     0.031     2.578     2.511
    11   1 H        0.804     0.332     0.633     1.249
    12   1 H        0.860     0.146     1.428     1.872
    13   1 H        0.860     0.154     1.377     1.839

Wiberg/Mayer (AO) data.
largest (>0.10) Wiberg bond orders for each atom

     #   Z sym  total        # sym  WBO       # sym  WBO       # sym  WBO
 ---------------------------------------------------------------------------
     1   6 C    3.991 --     2 C    1.001     9 H    0.986     7 H    0.985
                             8 H    0.982
     2   6 C    3.988 --     6 N    1.020     1 C    1.001     3 C    0.951
                            10 H    0.930
     3   6 C    3.910 --     4 O    1.776     5 O    1.133     2 C    0.951
     4   8 O    2.047 --     3 C    1.776     5 O    0.173
     5   8 O    2.202 --     3 C    1.133    11 H    0.864     4 O    0.173
     6   7 N    3.005 --     2 C    1.020    12 H    0.964    13 H    0.959
     7   1 H    0.996 --     1 C    0.985
     8   1 H    0.996 --     1 C    0.982
     9   1 H    0.997 --     1 C    0.986
    10   1 H    0.999 --     2 C    0.930
    11   1 H    0.889 --     5 O    0.864
    12   1 H    0.979 --     6 N    0.964
    13   1 H    0.976 --     6 N    0.959
 ---------------------------------------------------------------------------

molecular dipole:
                 x           y           z       tot (Debye)
 q only:       -0.304      -0.094       0.639
   full:       -0.156      -0.366       0.935       2.584

 projected vibrational frequencies (cm⁻¹)
eigval :       -0.00    -0.00    -0.00     0.00     0.00     0.00
eigval :       40.71   166.08   231.32   240.19   302.66   386.38
eigval :      469.46   545.06   616.67   710.09   808.82   909.83
eigval :      967.38  1019.36  1067.19  1126.22  1166.94  1188.03
eigval :     1225.22  1288.94  1319.50  1398.34  1474.37  1486.44
eigval :     1543.00  1796.71  2729.93  3043.74  3060.81  3060.89
eigval :     3403.06  3437.41  3444.65

   temp. (K)  partition function   enthalpy   heat capacity  entropy
                                   cal/mol     cal/K/mol   cal/K/mol   J/K/mol
 298.15  VIB   48.0                 2683.424     17.925     15.667
         ROT  0.143E+06              888.752      2.981     26.564
         INT  0.684E+07             3572.176     20.906     42.231
         TR   0.814E+27             1481.254      4.968     39.356
         TOT                        5053.4303    25.8737    81.5870   341.3601

       T/K    H(0)-H(T)+PV         H(T)/Eh          T*S/Eh         G(T)/Eh
   ------------------------------------------------------------------------
    298.15    0.805315E-02    0.112109E+00    0.387646E-01    0.733448E-01
   ------------------------------------------------------------------------

         :::::::::::::::::::::::::::::::::::::::::::::::::::::
         ::                  THERMODYNAMIC                  ::
         :::::::::::::::::::::::::::::::::::::::::::::::::::::
         :: total free energy         -20.966572055758 Eh   ::
         ::.................................................::
         :: total energy              -21.039916819290 Eh   ::
         :: zero point energy           0.104056232156 Eh   ::
         :: G(RRHO) w/o ZPVE           -0.030711468624 Eh   ::
         :: G(RRHO) contrib.            0.073344763532 Eh   ::
         :::::::::::::::::::::::::::::::::::::::::::::::::::::

           -------------------------------------------------
          | TOTAL ENERGY              -21.039916819290 Eh   |
          | TOTAL ENTHALPY            -20.927807433345 Eh   |
          | TOTAL FREE ENERGY         -20.966572055758 Eh   |
          | GRADIENT NORM               0.000153362439 Eh/α |
          | HOMO-LUMO GAP               3.744940588268 eV   |
           -------------------------------------------------

 * finished run on 2025/07/30 at 12:34:41.979
