   * xtb version 6.6.0 (8843059) compiled by 'stahn@majestix' on 2023-02-09
          program call               : xtb --gfn2 in.xyz --ohess vtight

   ID    Z sym.   atoms
    1    6 C      1-3
    2    8 O      4, 5
    3    7 N      6
    4    1 H      7-13

          :  Hamiltonian                  GFN2-xTB          :
 * total energy  :   -21.0400820 Eh     change       -0.6675869E-09 Eh
   *** GEOMETRY OPTIMIZATION CONVERGED AFTER 1 ITERATIONS ***

 final structure:
================
13
 xtb: 6.6.0 (8843059)
C           -1.11217000000000       -1.49272300000000       -0.10810700000000
C           -0.70568400000000       -0.13959300000000        0.47627900000000
C            0.77331100000000        0.09282000000000        0.11454200000000
O            1.68106300000000       -0.41214200000000        0.71006400000000
O            0.93185300000000        0.88097500000000       -0.94249700000000
N           -1.49061000000000        0.93230900000000       -0.13364600000000
H           -0.44526400000000       -2.26600600000000        0.26243200000000
H           -2.13216600000000       -1.74076600000000        0.17943700000000
H           -1.04993200000000       -1.46355000000000       -1.19399800000000
H           -0.78681900000000       -0.18124800000000        1.57192300000000
H            0.03660000000000        1.18605900000000       -1.21513900000000
H           -2.45574500000000        0.64952600000000       -0.25825900000000
H           -1.48155300000000        1.76348100000000        0.44805800000000

          :  Hamiltonian                  GFN2-xTB          :
         :: gradient norm              0.000062792670 Eh/a0 ::
         :: HOMO-LUMO gap              4.653050089488 eV    ::
         :: SCC energy               -21.248093272277 Eh    ::
         :: -> dispersion             -0.007089441839 Eh    ::
         :: repulsion energy           0.208001922427 Eh    ::

    * Orbital Energies and Occupations

         #    Occupation            Energy/Eh            Energy/eV
      -------------------------------------------------------------
         1        2.0000           -0.7376725             -20.0731
       ...           ...                  ...                  ...
         6        2.0000           -0.6177280             -16.8092
         7        2.0000           -0.5788546             -15.7514
         8        2.0000           -0.5694771             -15.4963
         9        2.0000           -0.5623754             -15.3030
        10        2.0000           -0.5431578             -14.7801
        11        2.0000           -0.5272083             -14.3461
        12        2.0000           -0.5116798             -13.9235
        13        2.0000           -0.4882202             -13.2851
        14        2.0000           -0.4802983             -13.0696
        15        2.0000           -0.4760212             -12.9532
        16        2.0000           -0.4661684             -12.6851
        17        2.0000           -0.4238737             -11.5342
        18        2.0000           -0.4000255             -10.8852 (HOMO)
        19                         -0.2290290              -6.2322 (LUMO)
        20                          0.0016591               0.0451
        21                          0.0607940               1.6543
        22                          0.0879849               2.3942
        23                          0.0984235               2.6782
        24                          0.1261531               3.4328
        25                          0.1546521               4.2083
        26                          0.1655058               4.5036
        27                          0.2132599               5.8031
        28                          0.2187577               5.9527
        29                          0.2466023               6.7104
       ...                                ...                  ...
        31                          0.6544036              17.8072
      -------------------------------------------------------------
                  HL-Gap            0.1709965 Eh            4.6531 eV

     #   Z          covCN         q      C6AA      α(0)
     1   6 C        3.758    -0.112    22.685     6.791
     2   6 C        3.779     0.018    20.296     6.418
     3   6 C        2.694     0.348    21.090     7.516
     4   8 O        0.856    -0.379    21.257     6.182
     5   8 O        1.657    -0.367    20.218     6.070
     6   7 N        2.633    -0.351    29.044     8.004
     7   1 H        0.925     0.061     2.186     2.312
     8   1 H        0.925     0.048     2.348     2.396
     9   1 H        0.925     0.053     2.285     2.364
    10   1 H        0.923     0.037     2.491     2.468
    11   1 H        0.803     0.342     0.608     1.225
    12   1 H        0.860     0.154     1.372     1.835
    13   1 H        0.860     0.147     1.420     1.867

Wiberg/Mayer (AO) data.
largest (>0.10) Wiberg bond orders for each atom

     #   Z sym  total        # sym  WBO       # sym  WBO       # sym  WBO
 ---------------------------------------------------------------------------
     1   6 C    3.991 --     2 C    0.992     9 H    0.985     7 H    0.983
                             8 H    0.982
     2   6 C    3.981 --     6 N    1.011     1 C    0.992    10 H    0.957
                             3 C    0.929
     3   6 C    3.923 --     4 O    1.783     5 O    1.167     2 C    0.929
     4   8 O    2.064 --     3 C    1.783     5 O    0.173
     5   8 O    2.225 --     3 C    1.167    11 H    0.820     4 O    0.173
     6   7 N    3.053 --     2 C    1.011    13 H    0.966    12 H    0.959
     7   1 H    0.996 --     1 C    0.983
     8   1 H    0.998 --     1 C    0.982
     9   1 H    0.997 --     1 C    0.985
    10   1 H    0.999 --     2 C    0.957
    11   1 H    0.883 --     5 O    0.820
    12   1 H    0.976 --     6 N    0.959
    13   1 H    0.978 --     6 N    0.966
 ---------------------------------------------------------------------------

molecular dipole:
                 x           y           z       tot (Debye)
 q only:       -1.649       0.306      -0.350
   full:       -2.179       0.381      -0.112       5.630

 projected vibrational frequencies (cm⁻¹)
eigval :       -0.00    -0.00    -0.00     0.00     0.00     0.00
eigval :       68.28   208.27   230.90   258.29   329.05   370.64
eigval :      524.77   596.95   697.71   721.17   817.42   924.88
eigval :      975.49  1006.10  1049.06  1132.33  1152.36  1199.21
eigval :     1269.42  1281.03  1298.89  1401.23  1485.39  1487.09
eigval :     1545.96  1810.33  2881.55  3022.71  3036.90  3058.41
eigval :     3148.80  3400.42  3427.67

   temp. (K)  partition function   enthalpy   heat capacity  entropy
                                   cal/mol     cal/K/mol   cal/K/mol   J/K/mol
 298.15  VIB   23.5                 2505.022     17.833     14.460
         ROT  0.139E+06              888.752      2.981     26.519
         INT  0.327E+07             3393.774     20.813     40.978
         TR   0.814E+27             1481.254      4.968     39.356
         TOT                        4875.0281    25.7816    80.3341   336.1179

       T/K    H(0)-H(T)+PV         H(T)/Eh          T*S/Eh         G(T)/Eh
   ------------------------------------------------------------------------
    298.15    0.776885E-02    0.112151E+00    0.381693E-01    0.739822E-01
   ------------------------------------------------------------------------

         :::::::::::::::::::::::::::::::::::::::::::::::::::::
         ::                  THERMODYNAMIC                  ::
         :::::::::::::::::::::::::::::::::::::::::::::::::::::
         :: total free energy         -20.966099822226 Eh   ::
         ::.................................................::
         :: total energy              -21.040081983202 Eh   ::
         :: zero point energy           0.104382635630 Eh   ::
         :: G(RRHO) w/o ZPVE           -0.030400474654 Eh   ::
         :: G(RRHO) contrib.            0.073982160976 Eh   ::
         :::::::::::::::::::::::::::::::::::::::::::::::::::::

           -------------------------------------------------
          | TOTAL ENERGY              -21.040081983202 Eh   |
          | TOTAL ENTHALPY            -20.927930495761 Eh   |
          | TOTAL FREE ENERGY         -20.966099822226 Eh   |
          | GRADIENT NORM               0.000062793746 Eh/α |
          | HOMO-LUMO GAP               4.653050472506 eV   |
           -------------------------------------------------

 * finished run on 2025/07/30 at 12:34:41.722
