   * xtb version 6.6.0 (8843059) compiled by 'stahn@majestix' on 2023-02-09
          program call               : xtb --gfn2 in.xyz --ohess vtight

   ID    Z sym.   atoms
    1    6 C      1-3
    2    8 O      4, 5
    3    7 N      6
    4    1 H      7-13

          :  Hamiltonian                  GFN2-xTB          :
 * total energy  :   -21.0423078 Eh     change       -0.7698695E-09 Eh
   *** GEOMETRY OPTIMIZATION CONVERGED AFTER 1 ITERATIONS ***

 final structure:
================
13
 xtb: 6.6.0 (8843059)
C           -1.19456500000000       -1.31027000000000       -0.55207700000000
C           -0.72506200000000       -0.19316400000000        0.39047700000000
C            0.71055500000000        0.15002500000000        0.03272700000000
O            1.05529900000000        1.15867500000000       -0.52372400000000
O            1.56670000000000       -0.80957400000000        0.39167100000000
N           -1.55721300000000        0.99742100000000        0.33965500000000
H           -2.21486200000000       -1.59083700000000       -0.30151700000000
H           -1.16504400000000       -0.96820900000000       -1.58558700000000
H           -0.55515900000000       -2.18296700000000       -0.45012500000000
H           -0.72298900000000       -0.58017900000000        1.41958200000000
H            2.47208500000000       -0.56651600000000        0.13985900000000
H           -2.36537000000000        0.84942200000000       -0.25337500000000
H           -1.02146500000000        1.76495700000000       -0.05702000000000

          :  Hamiltonian                  GFN2-xTB          :
         :: gradient norm              0.000147671223 Eh/a0 ::
         :: HOMO-LUMO gap              3.519780390752 eV    ::
         :: SCC energy               -21.251441303866 Eh    ::
         :: -> dispersion             -0.006992649748 Eh    ::
         :: repulsion energy           0.209123742292 Eh    ::

    * Orbital Energies and Occupations

         #    Occupation            Energy/Eh            Energy/eV
      -------------------------------------------------------------
         1        2.0000           -0.7529847             -20.4898
       ...           ...                  ...                  ...
         6        2.0000           -0.5971006             -16.2479
         7        2.0000           -0.5862344             -15.9523
         8        2.0000           -0.5829837             -15.8638
         9        2.0000           -0.5647050             -15.3664
        10        2.0000           -0.5207275             -14.1697
        11        2.0000           -0.5133527             -13.9690
        12        2.0000           -0.5103984             -13.8886
        13        2.0000           -0.4846297             -13.1874
        14        2.0000           -0.4827915             -13.1374
        15        2.0000           -0.4715166             -12.8306
        16        2.0000           -0.4626358             -12.5890
        17        2.0000           -0.4274193             -11.6307
        18        2.0000           -0.3713022             -10.1036 (HOMO)
        19                         -0.2419526              -6.5839 (LUMO)
        20                          0.0312732               0.8510
        21                          0.0573753               1.5613
        22                          0.0899244               2.4470
        23                          0.1267566               3.4492
        24                          0.1356026               3.6899
        25                          0.1652634               4.4970
        26                          0.1805821               4.9139
        27                          0.2240502               6.0967
        28                          0.2366958               6.4408
        29                          0.2524586               6.8697
       ...                                ...                  ...
        31                          0.6345605              17.2673
      -------------------------------------------------------------
                  HL-Gap            0.1293495 Eh            3.5198 eV

     #   Z          covCN         q      C6AA      α(0)
     1   6 C        3.756    -0.111    22.681     6.790
     2   6 C        3.782     0.033    20.043     6.378
     3   6 C        2.695     0.354    20.994     7.499
     4   8 O        0.856    -0.409    21.853     6.268
     5   8 O        1.659    -0.376    20.385     6.095
     6   7 N        2.632    -0.349    28.995     7.997
     7   1 H        0.925     0.054     2.267     2.354
     8   1 H        0.925     0.045     2.388     2.417
     9   1 H        0.925     0.053     2.282     2.362
    10   1 H        0.923     0.062     2.171     2.304
    11   1 H        0.804     0.333     0.630     1.247
    12   1 H        0.860     0.149     1.405     1.857
    13   1 H        0.860     0.162     1.325     1.803

Wiberg/Mayer (AO) data.
largest (>0.10) Wiberg bond orders for each atom

     #   Z sym  total        # sym  WBO       # sym  WBO       # sym  WBO
 ---------------------------------------------------------------------------
     1   6 C    3.993 --     8 H    0.987     9 H    0.984     7 H    0.982
                             2 C    0.979
     2   6 C    3.989 --     6 N    1.025     1 C    0.979     3 C    0.954
                            10 H    0.945
     3   6 C    3.907 --     4 O    1.762     5 O    1.138     2 C    0.954
     4   8 O    2.047 --     3 C    1.762     5 O    0.170
     5   8 O    2.201 --     3 C    1.138    11 H    0.864     4 O    0.170
     6   7 N    3.001 --     2 C    1.025    12 H    0.962    13 H    0.951
     7   1 H    0.997 --     1 C    0.982
     8   1 H    0.998 --     1 C    0.987
     9   1 H    0.997 --     1 C    0.984
    10   1 H    0.996 --     2 C    0.945
    11   1 H    0.889 --     5 O    0.864
    12   1 H    0.978 --     6 N    0.962
    13   1 H    0.974 --     6 N    0.951
 ---------------------------------------------------------------------------

molecular dipole:
                 x           y           z       tot (Debye)
 q only:       -0.110      -0.724       0.021
   full:        0.107      -0.825      -0.308       2.255

 projected vibrational frequencies (cm⁻¹)
eigval :       -0.00    -0.00     0.00     0.00     0.00     0.00
eigval :     -152.96    80.64   216.81   231.98   289.22   372.16
eigval :      486.34   591.52   632.36   712.97   810.93   940.95
eigval :      964.58  1031.11  1066.05  1124.53  1174.05  1180.13
eigval :     1219.90  1271.22  1309.77  1395.26  1488.87  1490.43
eigval :     1558.72  1789.01  2881.13  3023.27  3037.87  3048.18
eigval :     3369.44  3423.64  3440.46

   temp. (K)  partition function   enthalpy   heat capacity  entropy
                                   cal/mol     cal/K/mol   cal/K/mol   J/K/mol
 298.15  VIB   15.5                 2250.703     16.464     12.894
         ROT  0.143E+06              888.752      2.981     26.565
         INT  0.221E+07             3139.456     19.445     39.459
         TR   0.814E+27             1481.254      4.968     39.356
         TOT                        4620.7097    24.4130    78.8150   329.7618

       T/K    H(0)-H(T)+PV         H(T)/Eh          T*S/Eh         G(T)/Eh
   ------------------------------------------------------------------------
    298.15    0.736357E-02    0.111370E+00    0.374475E-01    0.739224E-01
   ------------------------------------------------------------------------

         :::::::::::::::::::::::::::::::::::::::::::::::::::::
         ::                  THERMODYNAMIC                  ::
         :::::::::::::::::::::::::::::::::::::::::::::::::::::
         :: total free energy         -20.968385335170 Eh   ::
         ::.................................................::
         :: total energy              -21.042307766167 Eh   ::
         :: zero point energy           0.104006397276 Eh   ::
         :: G(RRHO) w/o ZPVE           -0.030083966279 Eh   ::
         :: G(RRHO) contrib.            0.073922430997 Eh   ::
         :::::::::::::::::::::::::::::::::::::::::::::::::::::

           -------------------------------------------------
          | TOTAL ENERGY              -21.042307766167 Eh   |
          | TOTAL ENTHALPY            -20.930937799262 Eh   |
          | TOTAL FREE ENERGY         -20.968385335170 Eh   |
          | GRADIENT NORM               0.000147667208 Eh/α |
          | HOMO-LUMO GAP               3.519779906254 eV   |
           -------------------------------------------------

 * finished run on 2025/07/30 at 12:34:40.860
