   * xtb version 6.6.0 (8843059) compiled by 'stahn@majestix' on 2023-02-09
          program call               : xtb --gfn2 in.xyz --ohess vtight

   ID    Z sym.   atoms
    1    6 C      1-3
    2    8 O      4, 5
    3    7 N      6
    4    1 H      7-13

          :  Hamiltonian                  GFN2-xTB          :
 * total energy  :   -21.0428809 Eh     change       -0.3338130E-09 Eh
   *** GEOMETRY OPTIMIZATION CONVERGED AFTER 1 ITERATIONS ***

 final structure:
================
13
 xtb: 6.6.0 (8843059)
C           -1.20128100000000       -1.22769100000000       -0.69645200000000
C           -0.72227000000000       -0.23425300000000        0.38095200000000
C            0.70548800000000        0.13793700000000        0.02785200000000
O            1.02145800000000        1.06020100000000       -0.67358100000000
O            1.59093400000000       -0.71775500000000        0.54482700000000
N           -1.51165000000000        0.97688100000000        0.47424900000000
H           -2.22501900000000       -1.53044200000000       -0.48608000000000
H           -1.16660400000000       -0.75860700000000       -1.67842400000000
H           -0.57022500000000       -2.11255400000000       -0.70456000000000
H           -0.72436600000000       -0.73373400000000        1.35648700000000
H            2.49248600000000       -0.47556000000000        0.27763500000000
H           -1.25254000000000        1.60961000000000       -0.27655200000000
H           -2.50007300000000        0.76767200000000        0.39259900000000

          :  Hamiltonian                  GFN2-xTB          :
         :: gradient norm              0.000017431031 Eh/a0 ::
         :: HOMO-LUMO gap              3.661873616219 eV    ::
         :: SCC energy               -21.252815138120 Eh    ::
         :: -> dispersion             -0.007007544087 Eh    ::
         :: repulsion energy           0.209924140806 Eh    ::

    * Orbital Energies and Occupations

         #    Occupation            Energy/Eh            Energy/eV
      -------------------------------------------------------------
         1        2.0000           -0.7508639             -20.4320
       ...           ...                  ...                  ...
         6        2.0000           -0.5962462             -16.2247
         7        2.0000           -0.5865632             -15.9612
         8        2.0000           -0.5800281             -15.7834
         9        2.0000           -0.5649340             -15.3726
        10        2.0000           -0.5213732             -14.1873
        11        2.0000           -0.5130773             -13.9615
        12        2.0000           -0.5048791             -13.7385
        13        2.0000           -0.4870338             -13.2529
        14        2.0000           -0.4804809             -13.0745
        15        2.0000           -0.4789971             -13.0342
        16        2.0000           -0.4614414             -12.5565
        17        2.0000           -0.4226354             -11.5005
        18        2.0000           -0.3742770             -10.1846 (HOMO)
        19                         -0.2397056              -6.5227 (LUMO)
        20                          0.0324462               0.8829
        21                          0.0642692               1.7489
        22                          0.0863023               2.3484
        23                          0.1275380               3.4705
        24                          0.1369413               3.7264
        25                          0.1635788               4.4512
        26                          0.1910719               5.1993
        27                          0.2202848               5.9943
        28                          0.2284524               6.2165
        29                          0.2423314               6.5942
       ...                                ...                  ...
        31                          0.6422970              17.4778
      -------------------------------------------------------------
                  HL-Gap            0.1345714 Eh            3.6619 eV

     #   Z          covCN         q      C6AA      α(0)
     1   6 C        3.756    -0.113    22.718     6.796
     2   6 C        3.782     0.033    20.046     6.378
     3   6 C        2.698     0.359    20.915     7.485
     4   8 O        0.856    -0.403    21.733     6.250
     5   8 O        1.659    -0.375    20.364     6.092
     6   7 N        2.633    -0.344    28.854     7.978
     7   1 H        0.925     0.049     2.336     2.390
     8   1 H        0.925     0.047     2.361     2.403
     9   1 H        0.925     0.047     2.356     2.400
    10   1 H        0.924     0.060     2.202     2.321
    11   1 H        0.804     0.333     0.631     1.247
    12   1 H        0.860     0.160     1.338     1.812
    13   1 H        0.860     0.149     1.410     1.860

Wiberg/Mayer (AO) data.
largest (>0.10) Wiberg bond orders for each atom

     #   Z sym  total        # sym  WBO       # sym  WBO       # sym  WBO
 ---------------------------------------------------------------------------
     1   6 C    3.994 --     8 H    0.987     9 H    0.985     7 H    0.982
                             2 C    0.967
     2   6 C    3.988 --     6 N    1.027     1 C    0.967    10 H    0.956
                             3 C    0.953
     3   6 C    3.910 --     4 O    1.771     5 O    1.138     2 C    0.953
     4   8 O    2.048 --     3 C    1.771     5 O    0.174
     5   8 O    2.203 --     3 C    1.138    11 H    0.864     4 O    0.174
     6   7 N    3.008 --     2 C    1.027    13 H    0.962    12 H    0.956
     7   1 H    0.998 --     1 C    0.982
     8   1 H    0.998 --     1 C    0.987
     9   1 H    0.998 --     1 C    0.985
    10   1 H    0.996 --     2 C    0.956
    11   1 H    0.889 --     5 O    0.864
    12   1 H    0.975 --     6 N    0.956
    13   1 H    0.978 --     6 N    0.962
 ---------------------------------------------------------------------------

molecular dipole:
                 x           y           z       tot (Debye)
 q only:       -0.185      -0.668       0.108
   full:       -0.154      -0.840      -0.189       2.225

 projected vibrational frequencies (cm⁻¹)
eigval :       -0.00     0.00     0.00     0.00     0.00     0.00
eigval :       52.43   207.31   210.45   217.78   284.79   350.38
eigval :      485.23   606.95   626.97   723.48   814.93   938.46
eigval :      946.66  1019.65  1068.93  1105.92  1139.98  1189.10
eigval :     1218.90  1271.85  1336.99  1393.28  1488.70  1490.27
eigval :     1545.78  1794.86  2929.49  3026.95  3029.50  3043.69
eigval :     3384.09  3422.80  3435.94

   temp. (K)  partition function   enthalpy   heat capacity  entropy
                                   cal/mol     cal/K/mol   cal/K/mol   J/K/mol
 298.15  VIB   38.3                 2667.519     18.082     15.636
         ROT  0.143E+06              888.752      2.981     26.566
         INT  0.546E+07             3556.271     21.063     42.202
         TR   0.814E+27             1481.254      4.968     39.356
         TOT                        5037.5253    26.0313    81.5578   341.2379

       T/K    H(0)-H(T)+PV         H(T)/Eh          T*S/Eh         G(T)/Eh
   ------------------------------------------------------------------------
    298.15    0.802781E-02    0.112373E+00    0.387508E-01    0.736227E-01
   ------------------------------------------------------------------------

         :::::::::::::::::::::::::::::::::::::::::::::::::::::
         ::                  THERMODYNAMIC                  ::
         :::::::::::::::::::::::::::::::::::::::::::::::::::::
         :: total free energy         -20.969258177274 Eh   ::
         ::.................................................::
         :: total energy              -21.042880925311 Eh   ::
         :: zero point energy           0.104345690704 Eh   ::
         :: G(RRHO) w/o ZPVE           -0.030722942666 Eh   ::
         :: G(RRHO) contrib.            0.073622748038 Eh   ::
         :::::::::::::::::::::::::::::::::::::::::::::::::::::

           -------------------------------------------------
          | TOTAL ENERGY              -21.042880925311 Eh   |
          | TOTAL ENTHALPY            -20.930507427061 Eh   |
          | TOTAL FREE ENERGY         -20.969258177274 Eh   |
          | GRADIENT NORM               0.000017458963 Eh/α |
          | HOMO-LUMO GAP               3.661873284677 eV   |
           -------------------------------------------------

 * finished run on 2025/07/30 at 12:34:40.275
