   * xtb version 6.6.0 (8843059) compiled by 'stahn@majestix' on 2023-02-09
          program call               : xtb --gfn2 in.xyz --ohess vtight

   ID    Z sym.   atoms
    1    6 C      1-3
    2    8 O      4, 5
    3    7 N      6
    4    1 H      7-13

          :  Hamiltonian                  GFN2-xTB          :
 * total energy  :   -21.0430199 Eh     change       -0.2089322E-08 Eh
   *** GEOMETRY OPTIMIZATION CONVERGED AFTER 1 ITERATIONS ***

 final structure:
================
13
 xtb: 6.6.0 (8843059)
C           -1.21340200000000       -1.34540900000000       -0.51795200000000
C           -0.71025700000000       -0.24084000000000        0.41757200000000
C            0.75834600000000        0.01528000000000        0.08733500000000
O            1.65851300000000       -0.74754600000000        0.31450800000000
O            0.95360800000000        1.19947400000000       -0.51186300000000
N           -1.57480600000000        0.91590900000000        0.32227600000000
H           -2.24308500000000       -1.58184600000000       -0.26773100000000
H           -1.17374100000000       -1.00889700000000       -1.55193500000000
H           -0.59839900000000       -2.23409300000000       -0.40995400000000
H           -0.74561800000000       -0.61041000000000        1.44978900000000
H            1.89268000000000        1.31770100000000       -0.72362200000000
H           -1.25638300000000        1.65598700000000        0.93766800000000
H           -1.56843700000000        1.28035400000000       -0.62460100000000

          :  Hamiltonian                  GFN2-xTB          :
         :: gradient norm              0.000026446615 Eh/a0 ::
         :: HOMO-LUMO gap              3.660243370831 eV    ::
         :: SCC energy               -21.252809072652 Eh    ::
         :: -> dispersion             -0.006982935525 Eh    ::
         :: repulsion energy           0.209778535709 Eh    ::

    * Orbital Energies and Occupations

         #    Occupation            Energy/Eh            Energy/eV
      -------------------------------------------------------------
         1        2.0000           -0.7531634             -20.4946
       ...           ...                  ...                  ...
         6        2.0000           -0.5979356             -16.2707
         7        2.0000           -0.5926444             -16.1267
         8        2.0000           -0.5794917             -15.7688
         9        2.0000           -0.5603209             -15.2471
        10        2.0000           -0.5316292             -14.4664
        11        2.0000           -0.5144581             -13.9991
        12        2.0000           -0.5021058             -13.6630
        13        2.0000           -0.4868537             -13.2480
        14        2.0000           -0.4724572             -12.8562
        15        2.0000           -0.4669433             -12.7062
        16        2.0000           -0.4538622             -12.3502
        17        2.0000           -0.4383706             -11.9287
        18        2.0000           -0.3750757             -10.2063 (HOMO)
        19                         -0.2405642              -6.5461 (LUMO)
        20                          0.0269377               0.7330
        21                          0.0561273               1.5273
        22                          0.1023675               2.7856
        23                          0.1207413               3.2855
        24                          0.1480398               4.0284
        25                          0.1581513               4.3035
        26                          0.1759415               4.7876
        27                          0.2213551               6.0234
        28                          0.2323125               6.3215
        29                          0.2579120               7.0181
       ...                                ...                  ...
        31                          0.6335741              17.2404
      -------------------------------------------------------------
                  HL-Gap            0.1345115 Eh            3.6602 eV

     #   Z          covCN         q      C6AA      α(0)
     1   6 C        3.759    -0.113    22.713     6.794
     2   6 C        3.781     0.034    20.026     6.375
     3   6 C        2.692     0.344    21.158     7.528
     4   8 O        0.856    -0.411    21.902     6.275
     5   8 O        1.659    -0.377    20.410     6.099
     6   7 N        2.632    -0.333    28.583     7.940
     7   1 H        0.925     0.066     2.132     2.283
     8   1 H        0.925     0.047     2.358     2.401
     9   1 H        0.925     0.058     2.225     2.332
    10   1 H        0.924     0.063     2.169     2.303
    11   1 H        0.804     0.328     0.643     1.260
    12   1 H        0.860     0.144     1.444     1.883
    13   1 H        0.860     0.152     1.386     1.844

Wiberg/Mayer (AO) data.
largest (>0.10) Wiberg bond orders for each atom

     #   Z sym  total        # sym  WBO       # sym  WBO       # sym  WBO
 ---------------------------------------------------------------------------
     1   6 C    3.991 --     8 H    0.986     9 H    0.985     7 H    0.982
                             2 C    0.981
     2   6 C    3.987 --     6 N    1.032     1 C    0.981    10 H    0.949
                             3 C    0.941
     3   6 C    3.903 --     4 O    1.770     5 O    1.129     2 C    0.941
     4   8 O    2.041 --     3 C    1.770     5 O    0.173
     5   8 O    2.199 --     3 C    1.129    11 H    0.867     4 O    0.173
     6   7 N    3.017 --     2 C    1.032    12 H    0.964    13 H    0.960
     7   1 H    0.996 --     1 C    0.982
     8   1 H    0.998 --     1 C    0.986
     9   1 H    0.997 --     1 C    0.985
    10   1 H    0.996 --     2 C    0.949
    11   1 H    0.893 --     5 O    0.867
    12   1 H    0.979 --     6 N    0.964
    13   1 H    0.977 --     6 N    0.960
 ---------------------------------------------------------------------------

molecular dipole:
                 x           y           z       tot (Debye)
 q only:       -0.426       0.463      -0.306
   full:        0.002       0.712      -0.437       2.123

 projected vibrational frequencies (cm⁻¹)
eigval :       -0.00    -0.00    -0.00    -0.00     0.00     0.00
eigval :       23.18   201.72   215.03   256.22   276.19   364.75
eigval :      517.69   552.52   621.53   715.73   800.14   941.56
eigval :      957.05   991.74  1051.96  1130.17  1153.94  1212.73
eigval :     1238.99  1253.42  1315.79  1391.09  1477.93  1487.81
eigval :     1563.29  1789.53  2923.01  3032.20  3055.58  3059.00
eigval :     3396.97  3425.12  3451.82

   temp. (K)  partition function   enthalpy   heat capacity  entropy
                                   cal/mol     cal/K/mol   cal/K/mol   J/K/mol
 298.15  VIB   74.8                 2680.982     17.602     15.619
         ROT  0.143E+06              888.752      2.981     26.569
         INT  0.107E+08             3569.735     20.583     42.188
         TR   0.814E+27             1481.254      4.968     39.356
         TOT                        5050.9885    25.5510    81.5439   341.1797

       T/K    H(0)-H(T)+PV         H(T)/Eh          T*S/Eh         G(T)/Eh
   ------------------------------------------------------------------------
    298.15    0.804926E-02    0.112493E+00    0.387441E-01    0.737486E-01
   ------------------------------------------------------------------------

         :::::::::::::::::::::::::::::::::::::::::::::::::::::
         ::                  THERMODYNAMIC                  ::
         :::::::::::::::::::::::::::::::::::::::::::::::::::::
         :: total free energy         -20.969271256051 Eh   ::
         ::.................................................::
         :: total energy              -21.043019888353 Eh   ::
         :: zero point energy           0.104443507338 Eh   ::
         :: G(RRHO) w/o ZPVE           -0.030694875036 Eh   ::
         :: G(RRHO) contrib.            0.073748632302 Eh   ::
         :::::::::::::::::::::::::::::::::::::::::::::::::::::

           -------------------------------------------------
          | TOTAL ENERGY              -21.043019888353 Eh   |
          | TOTAL ENTHALPY            -20.930527118506 Eh   |
          | TOTAL FREE ENERGY         -20.969271256051 Eh   |
          | GRADIENT NORM               0.000026434664 Eh/α |
          | HOMO-LUMO GAP               3.660242972388 eV   |
           -------------------------------------------------

 * finished run on 2025/07/30 at 12:34:39.846
