   * xtb version 6.6.0 (8843059) compiled by 'stahn@majestix' on 2023-02-09
          program call               : xtb --gfn2 in.xyz --ohess vtight

   ID    Z sym.   atoms
    1    6 C      1-4, 8, 10
    2    8 O      5, 6
    3    7 N      7, 9, 11, 12
    4    1 H      13-26

          :  Hamiltonian                  GFN2-xTB          :
 * total energy  :   -39.8325023 Eh     change       -0.4669687E-10 Eh
   *** GEOMETRY OPTIMIZATION CONVERGED AFTER 1 ITERATIONS ***

 final structure:
================
26
 xtb: 6.6.0 (8843059)
C           -1.03612000000000        2.10477500000000       -0.35411000000000
C           -2.07900700000000        1.07085600000000       -0.75844100000000
C           -1.84991800000000       -0.24052100000000       -0.01070900000000
C           -0.39630700000000       -0.75791600000000       -0.19573700000000
O           -0.22507700000000       -1.16607200000000       -1.51724300000000
O           -0.25051200000000       -1.80998700000000        0.68773600000000
N           -2.21103500000000       -0.09829400000000        1.38603400000000
C            0.35033800000000        1.54039400000000       -0.62540000000000
N            0.56976700000000        0.31165100000000        0.13560200000000
C            1.88264500000000       -0.09057900000000        0.30780600000000
N            2.74953400000000        0.89071100000000        0.73561800000000
N            2.22540900000000       -1.30100900000000        0.07576500000000
H           -1.16625300000000        3.02058900000000       -0.93259700000000
H           -1.14225600000000        2.35121000000000        0.70309400000000
H           -2.00565500000000        0.87769700000000       -1.82902400000000
H           -3.08299200000000        1.42472700000000       -0.52670600000000
H           -2.49009400000000       -1.01838200000000       -0.43842500000000
H            0.67473900000000       -2.12039500000000        0.60007600000000
H           -1.53957000000000        0.50692900000000        1.84831200000000
H           -2.14137500000000       -1.00524600000000        1.83511500000000
H            0.43840400000000        1.31650100000000       -1.69837300000000
H            1.12240800000000        2.26431500000000       -0.36419200000000
H            3.63902200000000        0.56812900000000        1.08208300000000
H            2.36291100000000        1.67629800000000        1.23171800000000
H            3.18836100000000       -1.51463200000000        0.31105900000000
H            0.64437800000000       -1.59148500000000       -1.57331000000000

          :  Hamiltonian                  GFN2-xTB          :
         :: gradient norm              0.000098321914 Eh/a0 ::
         :: HOMO-LUMO gap              4.365327419165 eV    ::
         :: SCC energy               -40.250115747780 Eh    ::
         :: -> dispersion             -0.023482182084 Eh    ::
         :: repulsion energy           0.417355291734 Eh    ::

    * Orbital Energies and Occupations

         #    Occupation            Energy/Eh            Energy/eV
      -------------------------------------------------------------
         1        2.0000           -0.6989238             -19.0187
       ...           ...                  ...                  ...
        23        2.0000           -0.4892774             -13.3139
        24        2.0000           -0.4794453             -13.0464
        25        2.0000           -0.4721746             -12.8485
        26        2.0000           -0.4698814             -12.7861
        27        2.0000           -0.4445943             -12.0980
        28        2.0000           -0.4369686             -11.8905
        29        2.0000           -0.4311277             -11.7316
        30        2.0000           -0.4288828             -11.6705
        31        2.0000           -0.4242650             -11.5448
        32        2.0000           -0.4057273             -11.0404
        33        2.0000           -0.3910336             -10.6406
        34        2.0000           -0.3829082             -10.4195
        35        2.0000           -0.3619891              -9.8502 (HOMO)
        36                         -0.2015662              -5.4849 (LUMO)
        37                         -0.0173303              -0.4716
        38                          0.0288659               0.7855
        39                          0.0510370               1.3888
        40                          0.0541498               1.4735
        41                          0.0645003               1.7551
        42                          0.0810379               2.2052
        43                          0.0988127               2.6888
        44                          0.1121273               3.0511
        45                          0.1225713               3.3353
        46                          0.1259042               3.4260
       ...                                ...                  ...
        62                          0.5565225              15.1437
      -------------------------------------------------------------
                  HL-Gap            0.1604228 Eh            4.3653 eV

     #   Z          covCN         q      C6AA      α(0)
     1   6 C        3.806    -0.064    21.733     6.637
     2   6 C        3.810    -0.072    21.870     6.657
     3   6 C        3.785     0.044    19.847     6.346
     4   6 C        3.604     0.327    16.191     5.817
     5   8 O        1.657    -0.470    22.246     6.367
     6   8 O        1.657    -0.470    22.258     6.369
     7   7 N        2.632    -0.341    28.791     7.969
     8   6 C        3.755     0.013    20.416     6.443
     9   7 N        2.743    -0.202    25.383     7.483
    10   6 C        2.753     0.243    22.932     7.842
    11   7 N        2.642    -0.305    27.855     7.839
    12   7 N        1.785    -0.449    32.751     8.476
    13   1 H        0.924     0.043     2.416     2.431
    14   1 H        0.924     0.048     2.349     2.397
    15   1 H        0.924     0.051     2.305     2.374
    16   1 H        0.925     0.057     2.232     2.336
    17   1 H        0.924     0.055     2.259     2.350
    18   1 H        0.803     0.323     0.656     1.272
    19   1 H        0.860     0.143     1.453     1.888
    20   1 H        0.860     0.158     1.346     1.818
    21   1 H        0.923     0.040     2.446     2.446
    22   1 H        0.925     0.042     2.428     2.437
    23   1 H        0.860     0.172     1.262     1.760
    24   1 H        0.860     0.173     1.256     1.756
    25   1 H        0.860     0.127     1.571     1.963
    26   1 H        0.804     0.316     0.676     1.291

Wiberg/Mayer (AO) data.
largest (>0.10) Wiberg bond orders for each atom

     #   Z sym  total        # sym  WBO       # sym  WBO       # sym  WBO
 ---------------------------------------------------------------------------
     1   6 C    3.996 --     2 C    1.009     8 C    1.007    13 H    0.974
                            14 H    0.973
     2   6 C    3.995 --     1 C    1.009     3 C    0.995    15 H    0.975
                            16 H    0.974
     3   6 C    3.985 --     7 N    1.030     2 C    0.995    17 H    0.962
                             4 C    0.932
     4   6 C    3.921 --     6 O    1.013     5 O    0.984     3 C    0.932
                             9 N    0.922
     5   8 O    1.975 --     4 C    0.984    26 H    0.870
     6   8 O    1.977 --     4 C    1.013    18 H    0.823
     7   7 N    3.013 --     3 C    1.030    19 H    0.961    20 H    0.958
     8   6 C    3.974 --     1 C    1.007     9 N    0.972    22 H    0.969
                            21 H    0.966
     9   7 N    3.304 --    10 C    1.129     8 C    0.972     4 C    0.922
    10   6 C    3.963 --    12 N    1.639    11 N    1.149     9 N    1.129
    11   7 N    3.254 --    10 C    1.149    23 H    0.950    24 H    0.945
                            12 N    0.144
    12   7 N    2.963 --    10 C    1.639    25 H    0.952    11 N    0.144
    13   1 H    0.998 --     1 C    0.974
    14   1 H    0.998 --     1 C    0.973
    15   1 H    0.997 --     2 C    0.975
    16   1 H    0.997 --     2 C    0.974
    17   1 H    0.997 --     3 C    0.962
    18   1 H    0.896 --     6 O    0.823
    19   1 H    0.980 --     7 N    0.961
    20   1 H    0.975 --     7 N    0.958
    21   1 H    0.998 --     8 C    0.966
    22   1 H    0.998 --     8 C    0.969
    23   1 H    0.970 --    11 N    0.950
    24   1 H    0.970 --    11 N    0.945
    25   1 H    0.983 --    12 N    0.952
    26   1 H    0.900 --     5 O    0.870
 ---------------------------------------------------------------------------

molecular dipole:
                 x           y           z       tot (Debye)
 q only:        0.637       1.108       0.305
   full:        1.737       1.166       0.529       5.484

 projected vibrational frequencies (cm⁻¹)
eigval :       -0.00    -0.00     0.00     0.00     0.00     0.00
eigval :       59.17    79.52   115.88   183.44   208.63   227.89
eigval :      274.78   294.92   336.72   364.48   374.43   396.25
eigval :      415.08   446.54   456.10   483.33   520.75   531.94
eigval :      553.19   586.42   641.23   651.63   672.24   724.34
eigval :      768.91   868.13   870.55   910.19   951.54   990.50
eigval :     1011.86  1026.40  1035.66  1056.33  1083.04  1090.72
eigval :     1098.73  1124.90  1134.06  1161.46  1185.62  1199.74
eigval :     1218.77  1224.88  1267.02  1287.85  1322.60  1340.59
eigval :     1344.42  1349.60  1363.98  1389.30  1458.52  1469.27
eigval :     1480.46  1491.58  1569.99  1672.78  2882.33  2954.51
eigval :     2982.36  2991.19  2995.69  3003.41  3008.36  3220.01
eigval :     3390.04  3394.98  3419.59  3450.65  3460.72  3516.35

   temp. (K)  partition function   enthalpy   heat capacity  entropy
                                   cal/mol     cal/K/mol   cal/K/mol   J/K/mol
 298.15  VIB  0.137E+04             5840.665     42.340     33.447
         ROT  0.938E+06              888.752      2.981     30.308
         INT  0.129E+10             6729.417     45.321     63.755
         TR   0.222E+28             1481.254      4.968     41.354
         TOT                        8210.6708    50.2888   105.1090   439.7762

       T/K    H(0)-H(T)+PV         H(T)/Eh          T*S/Eh         G(T)/Eh
   ------------------------------------------------------------------------
    298.15    0.130845E-01    0.229713E+00    0.499407E-01    0.179773E+00
   ------------------------------------------------------------------------

         :::::::::::::::::::::::::::::::::::::::::::::::::::::
         ::                  THERMODYNAMIC                  ::
         :::::::::::::::::::::::::::::::::::::::::::::::::::::
         :: total free energy         -39.652729673922 Eh   ::
         ::.................................................::
         :: total energy              -39.832502296080 Eh   ::
         :: zero point energy           0.216628776261 Eh   ::
         :: G(RRHO) w/o ZPVE           -0.036856154104 Eh   ::
         :: G(RRHO) contrib.            0.179772622158 Eh   ::
         :::::::::::::::::::::::::::::::::::::::::::::::::::::

           -------------------------------------------------
          | TOTAL ENERGY              -39.832502296080 Eh   |
          | TOTAL ENTHALPY            -39.602788983058 Eh   |
          | TOTAL FREE ENERGY         -39.652729673922 Eh   |
          | GRADIENT NORM               0.000098325243 Eh/α |
          | HOMO-LUMO GAP               4.365327714912 eV   |
           -------------------------------------------------

 * finished run on 2025/07/30 at 12:34:45.676
