   * xtb version 6.6.0 (8843059) compiled by 'stahn@majestix' on 2023-02-09
          program call               : xtb --gfn2 in.xyz --ohess vtight

   ID    Z sym.   atoms
    1    6 C      1-4, 8, 10
    2    8 O      5, 6
    3    7 N      7, 9, 11, 12
    4    1 H      13-26

          :  Hamiltonian                  GFN2-xTB          :
 * total energy  :   -39.8342334 Eh     change       -0.5325518E-10 Eh
   *** GEOMETRY OPTIMIZATION CONVERGED AFTER 1 ITERATIONS ***

 final structure:
================
26
 xtb: 6.6.0 (8843059)
C           -0.90215800000000        2.24145000000000       -0.15144500000000
C           -2.04069500000000        1.27734400000000        0.14631900000000
C           -1.73478500000000       -0.07236700000000       -0.49060100000000
C           -0.36830700000000       -0.63269200000000       -0.00895200000000
O           -0.11209200000000       -1.72851300000000       -0.81109000000000
O           -0.46903900000000       -0.99452100000000        1.33659500000000
N           -2.81139900000000       -1.00453900000000       -0.23532800000000
C            0.38817600000000        1.67007100000000        0.41810900000000
N            0.69375800000000        0.37574600000000       -0.18399200000000
C            1.98972800000000       -0.08939500000000       -0.06442500000000
N            2.97929100000000        0.82344700000000       -0.35828600000000
N            2.21005100000000       -1.29699300000000        0.29871900000000
H           -0.80250600000000        2.37343300000000       -1.23030000000000
H           -1.09149400000000        3.21484300000000        0.30314600000000
H           -2.98746100000000        1.64275000000000       -0.24989500000000
H           -2.14445400000000        1.14250700000000        1.22424900000000
H           -1.64180900000000        0.04390300000000       -1.57621100000000
H            0.36283900000000       -1.43406700000000        1.56983900000000
H           -2.59798600000000       -1.88484300000000       -0.69371100000000
H           -2.84961500000000       -1.19014000000000        0.76317000000000
H            1.22199700000000        2.34995200000000        0.24323700000000
H            0.27193900000000        1.54377700000000        1.50450700000000
H            3.89789300000000        0.43501800000000       -0.50427100000000
H            2.74310500000000        1.58271100000000       -0.97542500000000
H            3.18698300000000       -1.56784700000000        0.27425700000000
H            0.76292300000000       -2.07499800000000       -0.54004100000000

          :  Hamiltonian                  GFN2-xTB          :
         :: gradient norm              0.000081139602 Eh/a0 ::
         :: HOMO-LUMO gap              4.285164655216 eV    ::
         :: SCC energy               -40.251953628318 Eh    ::
         :: -> dispersion             -0.023122248007 Eh    ::
         :: repulsion energy           0.417515710363 Eh    ::

    * Orbital Energies and Occupations

         #    Occupation            Energy/Eh            Energy/eV
      -------------------------------------------------------------
         1        2.0000           -0.6993795             -19.0311
       ...           ...                  ...                  ...
        23        2.0000           -0.4871271             -13.2554
        24        2.0000           -0.4845859             -13.1863
        25        2.0000           -0.4776145             -12.9966
        26        2.0000           -0.4560717             -12.4103
        27        2.0000           -0.4457729             -12.1301
        28        2.0000           -0.4402221             -11.9791
        29        2.0000           -0.4323397             -11.7646
        30        2.0000           -0.4298393             -11.6965
        31        2.0000           -0.4233511             -11.5200
        32        2.0000           -0.4052890             -11.0285
        33        2.0000           -0.3905172             -10.6265
        34        2.0000           -0.3821615             -10.3991
        35        2.0000           -0.3579210              -9.7395 (HOMO)
        36                         -0.2004441              -5.4544 (LUMO)
        37                         -0.0170077              -0.4628
        38                          0.0277402               0.7548
        39                          0.0399006               1.0857
        40                          0.0592013               1.6110
        41                          0.0781682               2.1271
        42                          0.0820431               2.2325
        43                          0.1028401               2.7984
        44                          0.1153531               3.1389
        45                          0.1219191               3.3176
        46                          0.1291374               3.5140
       ...                                ...                  ...
        62                          0.5553460              15.1117
      -------------------------------------------------------------
                  HL-Gap            0.1574769 Eh            4.2852 eV

     #   Z          covCN         q      C6AA      α(0)
     1   6 C        3.807    -0.068    21.787     6.645
     2   6 C        3.811    -0.072    21.871     6.657
     3   6 C        3.787     0.047    19.800     6.338
     4   6 C        3.605     0.326    16.197     5.817
     5   8 O        1.657    -0.471    22.273     6.371
     6   8 O        1.656    -0.470    22.249     6.368
     7   7 N        2.632    -0.341    28.775     7.967
     8   6 C        3.754     0.011    20.438     6.446
     9   7 N        2.743    -0.199    25.324     7.474
    10   6 C        2.754     0.243    22.930     7.841
    11   7 N        2.642    -0.306    27.871     7.841
    12   7 N        1.786    -0.450    32.802     8.483
    13   1 H        0.924     0.046     2.375     2.410
    14   1 H        0.924     0.045     2.380     2.413
    15   1 H        0.925     0.055     2.263     2.352
    16   1 H        0.924     0.053     2.281     2.362
    17   1 H        0.924     0.045     2.390     2.418
    18   1 H        0.804     0.314     0.680     1.295
    19   1 H        0.860     0.157     1.356     1.824
    20   1 H        0.860     0.155     1.365     1.830
    21   1 H        0.925     0.044     2.394     2.420
    22   1 H        0.923     0.040     2.445     2.446
    23   1 H        0.860     0.172     1.260     1.759
    24   1 H        0.860     0.173     1.253     1.754
    25   1 H        0.860     0.126     1.573     1.965
    26   1 H        0.803     0.323     0.657     1.273

Wiberg/Mayer (AO) data.
largest (>0.10) Wiberg bond orders for each atom

     #   Z sym  total        # sym  WBO       # sym  WBO       # sym  WBO
 ---------------------------------------------------------------------------
     1   6 C    3.996 --     2 C    1.009     8 C    1.007    13 H    0.976
                            14 H    0.974
     2   6 C    3.995 --     1 C    1.009     3 C    0.995    15 H    0.974
                            16 H    0.973
     3   6 C    3.987 --     7 N    1.032     2 C    0.995    17 H    0.963
                             4 C    0.932
     4   6 C    3.920 --     5 O    1.011     6 O    0.982     3 C    0.932
                             9 N    0.924
     5   8 O    1.976 --     4 C    1.011    26 H    0.826
     6   8 O    1.975 --     4 C    0.982    18 H    0.869
     7   7 N    3.014 --     3 C    1.032    19 H    0.959    20 H    0.959
     8   6 C    3.974 --     1 C    1.007     9 N    0.974    21 H    0.968
                            22 H    0.966
     9   7 N    3.313 --    10 C    1.134     8 C    0.974     4 C    0.924
    10   6 C    3.963 --    12 N    1.634    11 N    1.147     9 N    1.134
    11   7 N    3.250 --    10 C    1.147    23 H    0.949    24 H    0.945
                            12 N    0.142
    12   7 N    2.960 --    10 C    1.634    25 H    0.952    11 N    0.142
    13   1 H    0.998 --     1 C    0.976
    14   1 H    0.997 --     1 C    0.974
    15   1 H    0.997 --     2 C    0.974
    16   1 H    0.997 --     2 C    0.973
    17   1 H    0.998 --     3 C    0.963
    18   1 H    0.901 --     6 O    0.869
    19   1 H    0.975 --     7 N    0.959
    20   1 H    0.976 --     7 N    0.959
    21   1 H    0.998 --     8 C    0.968
    22   1 H    0.998 --     8 C    0.966
    23   1 H    0.970 --    11 N    0.949
    24   1 H    0.970 --    11 N    0.945
    25   1 H    0.983 --    12 N    0.952
    26   1 H    0.896 --     5 O    0.826
 ---------------------------------------------------------------------------

molecular dipole:
                 x           y           z       tot (Debye)
 q only:        0.698       1.034      -0.138
   full:        1.796       1.023      -0.109       5.262

 projected vibrational frequencies (cm⁻¹)
eigval :       -0.00    -0.00    -0.00     0.00     0.00     0.00
eigval :       61.99    83.38   112.22   180.60   211.03   237.07
eigval :      292.40   311.77   317.57   340.38   370.27   401.40
eigval :      413.76   432.52   471.32   491.88   511.54   528.67
eigval :      567.68   578.19   618.58   649.25   672.91   749.56
eigval :      770.92   869.54   888.71   911.29   949.67   999.98
eigval :     1007.71  1024.88  1032.41  1056.77  1075.72  1095.59
eigval :     1117.07  1128.34  1143.24  1166.62  1178.00  1200.33
eigval :     1215.90  1233.67  1262.66  1295.88  1312.95  1336.25
eigval :     1344.50  1360.42  1364.67  1392.90  1466.45  1471.28
eigval :     1483.33  1493.23  1561.01  1670.32  2877.17  2937.11
eigval :     2980.25  2988.16  2993.06  2996.56  3007.07  3231.80
eigval :     3380.65  3394.94  3410.49  3450.61  3457.93  3513.09

   temp. (K)  partition function   enthalpy   heat capacity  entropy
                                   cal/mol     cal/K/mol   cal/K/mol   J/K/mol
 298.15  VIB  0.127E+04             5827.769     42.341     33.328
         ROT  0.970E+06              888.752      2.981     30.374
         INT  0.123E+10             6716.522     45.321     63.703
         TR   0.222E+28             1481.254      4.968     41.354
         TOT                        8197.7756    50.2896   105.0566   439.5567

       T/K    H(0)-H(T)+PV         H(T)/Eh          T*S/Eh         G(T)/Eh
   ------------------------------------------------------------------------
    298.15    0.130640E-01    0.229734E+00    0.499158E-01    0.179818E+00
   ------------------------------------------------------------------------

         :::::::::::::::::::::::::::::::::::::::::::::::::::::
         ::                  THERMODYNAMIC                  ::
         :::::::::::::::::::::::::::::::::::::::::::::::::::::
         :: total free energy         -39.654415448281 Eh   ::
         ::.................................................::
         :: total energy              -39.834233366339 Eh   ::
         :: zero point energy           0.216669693271 Eh   ::
         :: G(RRHO) w/o ZPVE           -0.036851775213 Eh   ::
         :: G(RRHO) contrib.            0.179817918059 Eh   ::
         :::::::::::::::::::::::::::::::::::::::::::::::::::::

           -------------------------------------------------
          | TOTAL ENERGY              -39.834233366339 Eh   |
          | TOTAL ENTHALPY            -39.604499686155 Eh   |
          | TOTAL FREE ENERGY         -39.654415448281 Eh   |
          | GRADIENT NORM               0.000081134664 Eh/α |
          | HOMO-LUMO GAP               4.285164281883 eV   |
           -------------------------------------------------

 * finished run on 2025/07/30 at 12:34:42.835
