   * xtb version 6.6.0 (8843059) compiled by 'stahn@majestix' on 2023-02-09
          program call               : xtb --gfn2 in.xyz --ohess vtight

   ID    Z sym.   atoms
    1    6 C      1-4, 8, 10
    2    8 O      5, 6
    3    7 N      7, 9, 11, 12
    4    1 H      13-26

          :  Hamiltonian                  GFN2-xTB          :
 * total energy  :   -39.8299616 Eh     change       -0.2992095E-10 Eh
   *** GEOMETRY OPTIMIZATION CONVERGED AFTER 1 ITERATIONS ***

 final structure:
================
26
 xtb: 6.6.0 (8843059)
C           -0.77279400000000        2.05975000000000       -0.36620100000000
C           -1.99680800000000        1.14902500000000       -0.35534300000000
C           -1.63999100000000       -0.19209000000000        0.28605100000000
C           -0.45465800000000       -0.86237200000000       -0.46038600000000
O           -0.83731300000000       -1.05793900000000       -1.79138000000000
O           -0.16266900000000       -2.07444600000000        0.10958500000000
N           -1.22924000000000        0.00834400000000        1.66944800000000
C            0.36287900000000        1.33259100000000       -1.08669300000000
N            0.68543100000000        0.07305500000000       -0.44163800000000
C            1.66176600000000       -0.01623400000000        0.50577500000000
N            2.28593500000000        1.15973300000000        0.87703700000000
N            2.04175400000000       -1.17348700000000        0.91386400000000
H           -0.99711000000000        2.99662300000000       -0.87773700000000
H           -0.49247200000000        2.27742200000000        0.66590300000000
H           -2.33182900000000        0.96229800000000       -1.37563700000000
H           -2.81210600000000        1.61137100000000        0.20460700000000
H           -2.48948100000000       -0.88749000000000        0.18309900000000
H            0.77240600000000       -2.02500200000000        0.47649100000000
H           -0.85794400000000       -0.86596200000000        2.02937100000000
H           -2.03593500000000        0.25706500000000        2.23250500000000
H            0.03249300000000        1.08367200000000       -2.09951100000000
H            1.26827400000000        1.93535000000000       -1.15998700000000
H            2.93350900000000        1.06593500000000        1.64417800000000
H            1.72464100000000        1.99384200000000        0.91513200000000
H            2.76400000000000       -1.15579200000000        1.62289900000000
H           -0.34980000000000       -1.82539800000000       -2.11647900000000

          :  Hamiltonian                  GFN2-xTB          :
         :: gradient norm              0.000049585653 Eh/a0 ::
         :: HOMO-LUMO gap              4.893788521093 eV    ::
         :: SCC energy               -40.245542287615 Eh    ::
         :: -> dispersion             -0.024394691680 Eh    ::
         :: repulsion energy           0.415292735810 Eh    ::

    * Orbital Energies and Occupations

         #    Occupation            Energy/Eh            Energy/eV
      -------------------------------------------------------------
         1        2.0000           -0.6977168             -18.9858
       ...           ...                  ...                  ...
        23        2.0000           -0.4888148             -13.3013
        24        2.0000           -0.4811661             -13.0932
        25        2.0000           -0.4707133             -12.8088
        26        2.0000           -0.4662358             -12.6869
        27        2.0000           -0.4537557             -12.3473
        28        2.0000           -0.4449446             -12.1076
        29        2.0000           -0.4355394             -11.8516
        30        2.0000           -0.4324078             -11.7664
        31        2.0000           -0.4124644             -11.2237
        32        2.0000           -0.3961779             -10.7805
        33        2.0000           -0.3762166             -10.2374
        34        2.0000           -0.3709552             -10.0942
        35        2.0000           -0.3633164              -9.8863 (HOMO)
        36                         -0.1834730              -4.9926 (LUMO)
        37                         -0.0059575              -0.1621
        38                          0.0263367               0.7167
        39                          0.0401299               1.0920
        40                          0.0521613               1.4194
        41                          0.0713434               1.9414
        42                          0.0814288               2.2158
        43                          0.0943765               2.5681
        44                          0.1018973               2.7728
        45                          0.1251377               3.4052
        46                          0.1357496               3.6939
       ...                                ...                  ...
        62                          0.5531751              15.0527
      -------------------------------------------------------------
                  HL-Gap            0.1798434 Eh            4.8938 eV

     #   Z          covCN         q      C6AA      α(0)
     1   6 C        3.805    -0.066    21.770     6.642
     2   6 C        3.809    -0.066    21.765     6.641
     3   6 C        3.785     0.045    19.832     6.343
     4   6 C        3.606     0.332    16.119     5.802
     5   8 O        1.657    -0.458    21.997     6.331
     6   8 O        1.651    -0.490    22.689     6.430
     7   7 N        2.634    -0.358    29.219     8.028
     8   6 C        3.756    -0.003    20.688     6.485
     9   7 N        2.748    -0.164    24.546     7.358
    10   6 C        2.743     0.239    23.010     7.854
    11   7 N        2.642    -0.309    27.953     7.852
    12   7 N        1.830    -0.441    32.557     8.455
    13   1 H        0.924     0.039     2.461     2.453
    14   1 H        0.924     0.046     2.366     2.405
    15   1 H        0.925     0.053     2.283     2.363
    16   1 H        0.924     0.038     2.475     2.460
    17   1 H        0.923     0.020     2.734     2.586
    18   1 H        0.839     0.340     0.607     1.221
    19   1 H        0.860     0.152     1.390     1.847
    20   1 H        0.860     0.143     1.452     1.888
    21   1 H        0.924     0.066     2.125     2.279
    22   1 H        0.925     0.050     2.322     2.383
    23   1 H        0.860     0.168     1.285     1.776
    24   1 H        0.860     0.175     1.244     1.747
    25   1 H        0.860     0.132     1.529     1.937
    26   1 H        0.805     0.318     0.670     1.286

Wiberg/Mayer (AO) data.
largest (>0.10) Wiberg bond orders for each atom

     #   Z sym  total        # sym  WBO       # sym  WBO       # sym  WBO
 ---------------------------------------------------------------------------
     1   6 C    3.998 --     2 C    1.009     8 C    0.997    13 H    0.976
                            14 H    0.973
     2   6 C    3.997 --     1 C    1.009     3 C    0.995    16 H    0.975
                            15 H    0.974
     3   6 C    3.986 --     7 N    1.017     2 C    0.995    17 H    0.958
                             4 C    0.932
     4   6 C    3.932 --     6 O    1.035     5 O    0.981     3 C    0.932
                             9 N    0.920
     5   8 O    1.979 --     4 C    0.981    26 H    0.878
     6   8 O    1.957 --     4 C    1.035    18 H    0.744
     7   7 N    2.997 --     3 C    1.017    20 H    0.965    19 H    0.958
     8   6 C    3.972 --     1 C    0.997     9 N    0.989    22 H    0.969
                            21 H    0.965
     9   7 N    3.382 --    10 C    1.179     8 C    0.989     4 C    0.920
                            12 N    0.112
    10   6 C    3.964 --    12 N    1.598     9 N    1.179    11 N    1.136
    11   7 N    3.237 --    10 C    1.136    23 H    0.951    24 H    0.941
                            12 N    0.131
    12   7 N    3.010 --    10 C    1.598    25 H    0.949    11 N    0.131
                            18 H    0.120     9 N    0.112
    13   1 H    0.998 --     1 C    0.976
    14   1 H    0.998 --     1 C    0.973
    15   1 H    0.997 --     2 C    0.974
    16   1 H    0.998 --     2 C    0.975
    17   1 H    1.000 --     3 C    0.958
    18   1 H    0.884 --     6 O    0.744    12 N    0.120
    19   1 H    0.977 --     7 N    0.958
    20   1 H    0.980 --     7 N    0.965
    21   1 H    0.996 --     8 C    0.965
    22   1 H    0.998 --     8 C    0.969
    23   1 H    0.971 --    11 N    0.951
    24   1 H    0.969 --    11 N    0.941
    25   1 H    0.982 --    12 N    0.949
    26   1 H    0.899 --     5 O    0.878
 ---------------------------------------------------------------------------

molecular dipole:
                 x           y           z       tot (Debye)
 q only:        0.286       1.185       0.196
   full:        0.318       1.319       0.690       3.869

 projected vibrational frequencies (cm⁻¹)
eigval :       -0.00     0.00     0.00     0.00     0.00     0.00
eigval :       42.27    80.07   131.25   198.20   223.49   264.05
eigval :      275.56   291.17   308.38   339.76   358.64   369.66
eigval :      414.99   432.64   479.27   496.09   527.13   548.73
eigval :      556.21   593.57   640.52   662.59   686.94   722.24
eigval :      737.15   874.09   880.80   910.82   943.27   988.80
eigval :     1009.73  1030.74  1035.18  1044.48  1056.48  1094.45
eigval :     1115.36  1123.96  1147.90  1161.61  1196.31  1213.33
eigval :     1218.75  1253.21  1280.90  1310.68  1320.80  1330.85
eigval :     1338.38  1345.68  1366.65  1429.05  1461.20  1466.60
eigval :     1481.61  1501.17  1550.21  1658.30  2678.63  2836.35
eigval :     2957.41  2970.32  2982.93  2989.31  2993.98  3007.49
eigval :     3380.77  3409.60  3413.58  3461.68  3515.11  3525.06

   temp. (K)  partition function   enthalpy   heat capacity  entropy
                                   cal/mol     cal/K/mol   cal/K/mol   J/K/mol
 298.15  VIB  0.155E+04             5824.208     41.959     33.064
         ROT  0.873E+06              888.752      2.981     30.166
         INT  0.135E+10             6712.960     44.940     63.230
         TR   0.222E+28             1481.254      4.968     41.354
         TOT                        8194.2139    49.9082   104.5837   437.5782

       T/K    H(0)-H(T)+PV         H(T)/Eh          T*S/Eh         G(T)/Eh
   ------------------------------------------------------------------------
    298.15    0.130583E-01    0.228673E+00    0.496911E-01    0.178982E+00
   ------------------------------------------------------------------------

         :::::::::::::::::::::::::::::::::::::::::::::::::::::
         ::                  THERMODYNAMIC                  ::
         :::::::::::::::::::::::::::::::::::::::::::::::::::::
         :: total free energy         -39.650979229629 Eh   ::
         ::.................................................::
         :: total energy              -39.829961618056 Eh   ::
         :: zero point energy           0.215615173078 Eh   ::
         :: G(RRHO) w/o ZPVE           -0.036632784652 Eh   ::
         :: G(RRHO) contrib.            0.178982388426 Eh   ::
         :::::::::::::::::::::::::::::::::::::::::::::::::::::

           -------------------------------------------------
          | TOTAL ENERGY              -39.829961618056 Eh   |
          | TOTAL ENTHALPY            -39.601288133975 Eh   |
          | TOTAL FREE ENERGY         -39.650979229629 Eh   |
          | GRADIENT NORM               0.000049577324 Eh/α |
          | HOMO-LUMO GAP               4.893788471050 eV   |
           -------------------------------------------------

 * finished run on 2025/07/30 at 12:34:54.029
