   * xtb version 6.6.0 (8843059) compiled by 'stahn@majestix' on 2023-02-09
          program call               : xtb --gfn2 in.xyz --opt vtight

   ID    Z sym.   atoms
    1    6 C      1-4, 8, 10
    2    8 O      5, 6
    3    7 N      7, 9, 11, 12
    4    1 H      13-26

          :  Hamiltonian                  GFN2-xTB          :
 * total energy  :   -39.7228187 Eh     change       -0.3159144E-09 Eh
 * total energy  :   -39.7609297 Eh     change       -0.3811103E-01 Eh
 * total energy  :   -39.7726692 Eh     change       -0.1173951E-01 Eh
 * total energy  :   -39.7755475 Eh     change       -0.2878305E-02 Eh
 * total energy  :   -39.7779046 Eh     change       -0.2357026E-02 Eh
 * total energy  :   -39.7806732 Eh     change       -0.2768622E-02 Eh
 * total energy  :   -39.7836509 Eh     change       -0.2977697E-02 Eh
 * total energy  :   -39.7856166 Eh     change       -0.1965745E-02 Eh
 * total energy  :   -39.7864291 Eh     change       -0.8124458E-03 Eh
 * total energy  :   -39.7859844 Eh     change        0.4446606E-03 Eh
 * total energy  :   -39.8293701 Eh     change       -0.1641972E-05 Eh
 * total energy  :   -39.8293716 Eh     change       -0.1521336E-05 Eh
 * total energy  :   -39.8293729 Eh     change       -0.1312933E-05 Eh
 * total energy  :   -39.8293735 Eh     change       -0.6583416E-06 Eh
 * total energy  :   -39.8293738 Eh     change       -0.2331991E-06 Eh
 * total energy  :   -39.8293738 Eh     change        0.2336451E-07 Eh
 * total energy  :   -39.8293739 Eh     change       -0.1430149E-06 Eh
 * total energy  :   -39.8293739 Eh     change        0.2080224E-07 Eh
 * total energy  :   -39.8293740 Eh     change       -0.9068452E-07 Eh
   *** GEOMETRY OPTIMIZATION CONVERGED AFTER 87 ITERATIONS ***

 final structure:
================
26
 xtb: 6.6.0 (8843059)
C            0.68338078338408        0.59313054157268       -0.55649298970436
C           -0.58270506505317        0.73739950010541       -1.41083772192315
C           -1.78421465422056        0.07390528999166       -0.73330706220524
C           -1.52521246677119       -1.44586279922689       -0.65539794786197
O           -1.79327565630198       -1.95946083735841       -1.91580456944794
O           -2.35598179055775       -2.01402891586386        0.30398414244729
N           -2.01666511326547        0.63986687707806        0.58609881705725
C            0.55795956429683       -0.62310073653349        0.36502846055381
N           -0.11716699797864       -1.69996698418207       -0.33010863534412
C            0.28677173744702       -3.00162901497885       -0.31565247942878
N            1.62016374618013       -3.24460804371911       -0.04828950813551
N           -0.58158448592733       -3.92200220766532       -0.54258722461191
H            1.55224489131585        0.49251992291514       -1.20922003543368
H            0.82385237364519        1.47695592860843        0.06414837473131
H           -0.44897049812798        0.24516386969812       -2.37429849422777
H           -0.80204150847755        1.78972406490508       -1.58979014813512
H           -2.66047473552292        0.16685964220149       -1.39625551698106
H           -2.15957408469096       -2.96857745897600        0.29071853098432
H           -2.48767506912120        1.53316447090649        0.49375338044707
H           -2.62328032521577        0.01439304274913        1.10604797177199
H            1.53237943640271       -0.95361790163194        0.72150998989674
H           -0.05186743287079       -0.34449627907143        1.23057048933989
H            1.92829468367773       -4.18191359763492       -0.25554044341312
H            2.28364223742488       -2.53057087322568       -0.29972472258365
H           -0.19213588748312       -4.85728539000777       -0.57502621020584
H           -1.61446368218727       -2.91776211065883       -1.85742644758654

          :  Hamiltonian                  GFN2-xTB          :
         :: total energy             -39.829373968713 Eh    ::
         :: gradient norm              0.000049049443 Eh/a0 ::
         :: HOMO-LUMO gap              4.785154889811 eV    ::
         :: SCC energy               -40.247332589191 Eh    ::
         :: -> dispersion             -0.023567960071 Eh    ::
         :: repulsion energy           0.417722365444 Eh    ::

    * Orbital Energies and Occupations

         #    Occupation            Energy/Eh            Energy/eV
      -------------------------------------------------------------
         1        2.0000           -0.6968693             -18.9628
       ...           ...                  ...                  ...
        23        2.0000           -0.4849972             -13.1974
        24        2.0000           -0.4810731             -13.0907
        25        2.0000           -0.4683412             -12.7442
        26        2.0000           -0.4623851             -12.5821
        27        2.0000           -0.4491047             -12.2208
        28        2.0000           -0.4397599             -11.9665
        29        2.0000           -0.4314328             -11.7399
        30        2.0000           -0.4256030             -11.5812
        31        2.0000           -0.4219090             -11.4807
        32        2.0000           -0.4007888             -10.9060
        33        2.0000           -0.3810117             -10.3679
        34        2.0000           -0.3719374             -10.1209
        35        2.0000           -0.3605683              -9.8116 (HOMO)
        36                         -0.1847171              -5.0264 (LUMO)
        37                         -0.0134906              -0.3671
        38                          0.0302301               0.8226
        39                          0.0391936               1.0665
        40                          0.0582516               1.5851
        41                          0.0630945               1.7169
        42                          0.0783633               2.1324
        43                          0.0986014               2.6831
        44                          0.1088849               2.9629
        45                          0.1240829               3.3765
        46                          0.1334563               3.6315
       ...                                ...                  ...
        62                          0.5531760              15.0527
      -------------------------------------------------------------
                  HL-Gap            0.1758512 Eh            4.7852 eV

     #   Z          covCN         q      C6AA      α(0)
     1   6 C        3.804    -0.065    21.745     6.639
     2   6 C        3.808    -0.069    21.817     6.649
     3   6 C        3.784     0.051    19.739     6.328
     4   6 C        3.611     0.329    16.128     5.799
     5   8 O        1.657    -0.468    22.223     6.364
     6   8 O        1.656    -0.468    22.215     6.363
     7   7 N        2.631    -0.348    28.967     7.993
     8   6 C        3.746    -0.005    20.727     6.494
     9   7 N        2.751    -0.163    24.525     7.355
    10   6 C        2.749     0.238    23.027     7.858
    11   7 N        2.641    -0.311    27.999     7.859
    12   7 N        1.790    -0.468    33.356     8.555
    13   1 H        0.924     0.037     2.489     2.467
    14   1 H        0.925     0.051     2.308     2.376
    15   1 H        0.925     0.052     2.295     2.369
    16   1 H        0.925     0.044     2.397     2.421
    17   1 H        0.923     0.029     2.594     2.519
    18   1 H        0.804     0.325     0.650     1.267
    19   1 H        0.860     0.143     1.446     1.884
    20   1 H        0.860     0.163     1.319     1.799
    21   1 H        0.925     0.046     2.366     2.406
    22   1 H        0.924     0.071     2.073     2.252
    23   1 H        0.860     0.169     1.278     1.771
    24   1 H        0.860     0.170     1.275     1.769
    25   1 H        0.860     0.122     1.610     1.987
    26   1 H        0.804     0.325     0.651     1.267

Wiberg/Mayer (AO) data.
largest (>0.10) Wiberg bond orders for each atom

     #   Z sym  total        # sym  WBO       # sym  WBO       # sym  WBO
 ---------------------------------------------------------------------------
     1   6 C    3.996 --     2 C    1.004     8 C    0.999    13 H    0.981
                            14 H    0.978
     2   6 C    3.996 --     1 C    1.004     3 C    0.993    16 H    0.978
                            15 H    0.977
     3   6 C    3.986 --     7 N    1.020     2 C    0.993    17 H    0.958
                             4 C    0.951
     4   6 C    3.931 --     5 O    1.001     6 O    0.993     3 C    0.951
                             9 N    0.929
     5   8 O    1.972 --     4 C    1.001    26 H    0.839
     6   8 O    1.978 --     4 C    0.993    18 H    0.846
     7   7 N    3.004 --     3 C    1.020    19 H    0.965    20 H    0.953
     8   6 C    3.969 --     1 C    0.999     9 N    0.983    21 H    0.967
                            22 H    0.959
     9   7 N    3.397 --    10 C    1.183     8 C    0.983     4 C    0.929
                            12 N    0.122
    10   6 C    3.963 --    12 N    1.596     9 N    1.183    11 N    1.133
    11   7 N    3.231 --    10 C    1.133    23 H    0.951    24 H    0.944
                            12 N    0.129
    12   7 N    2.936 --    10 C    1.596    25 H    0.954    11 N    0.129
                             9 N    0.122
    13   1 H    0.999 --     1 C    0.981
    14   1 H    0.997 --     1 C    0.978
    15   1 H    0.997 --     2 C    0.977
    16   1 H    0.998 --     2 C    0.978
    17   1 H    0.999 --     3 C    0.958
    18   1 H    0.894 --     6 O    0.846
    19   1 H    0.979 --     7 N    0.965
    20   1 H    0.974 --     7 N    0.953
    21   1 H    0.998 --     8 C    0.967
    22   1 H    0.995 --     8 C    0.959
    23   1 H    0.971 --    11 N    0.951
    24   1 H    0.971 --    11 N    0.944
    25   1 H    0.985 --    12 N    0.954
    26   1 H    0.894 --     5 O    0.839
 ---------------------------------------------------------------------------

molecular dipole:
                 x           y           z       tot (Debye)
 q only:        1.154       0.358       0.190
   full:        1.472      -0.122       0.031       3.756

           -------------------------------------------------
          | TOTAL ENERGY              -39.829373968713 Eh   |
          | GRADIENT NORM               0.000049049443 Eh/α |
          | HOMO-LUMO GAP               4.785154889811 eV   |
           -------------------------------------------------

 * finished run on 2025/07/30 at 12:16:28.115
