   * xtb version 6.6.0 (8843059) compiled by 'stahn@majestix' on 2023-02-09
          program call               : xtb --gfn2 in.xyz --ohess vtight

   ID    Z sym.   atoms
    1    6 C      1-3
    2    8 O      4, 5
    3    7 N      6
    4    1 H      7-13

          :  Hamiltonian                  GFN2-xTB          :
 * total energy  :   -21.0409532 Eh     change       -0.1492246E-09 Eh
   *** GEOMETRY OPTIMIZATION CONVERGED AFTER 1 ITERATIONS ***

 final structure:
================
13
 xtb: 6.6.0 (8843059)
C           -1.39982800000000       -0.59463500000000       -1.19651800000000
C           -0.66347100000000       -0.48615600000000        0.13741300000000
C            0.77493500000000        0.02768900000000       -0.07917200000000
O            1.44990700000000       -0.28183500000000       -1.01810600000000
O            1.19744500000000        0.82689500000000        0.89508400000000
N           -1.30272400000000        0.37247600000000        1.13254500000000
H           -1.56256700000000        0.39670500000000       -1.61659600000000
H           -0.79581200000000       -1.16604300000000       -1.89509800000000
H           -2.36170600000000       -1.08719000000000       -1.06896900000000
H           -0.55614200000000       -1.48617800000000        0.57648000000000
H            0.45479200000000        0.94265400000000        1.52859500000000
H           -1.65598500000000        1.21445700000000        0.68594300000000
H           -2.08953200000000       -0.09327900000000        1.56830200000000

          :  Hamiltonian                  GFN2-xTB          :
         :: gradient norm              0.000082702239 Eh/a0 ::
         :: HOMO-LUMO gap              4.698310829495 eV    ::
         :: SCC energy               -21.249051377469 Eh    ::
         :: -> dispersion             -0.007023147105 Eh    ::
         :: repulsion energy           0.208089330356 Eh    ::

    * Orbital Energies and Occupations

         #    Occupation            Energy/Eh            Energy/eV
      -------------------------------------------------------------
         1        2.0000           -0.7381421             -20.0859
       ...           ...                  ...                  ...
         6        2.0000           -0.6145703             -16.7233
         7        2.0000           -0.5891205             -16.0308
         8        2.0000           -0.5682038             -15.4616
         9        2.0000           -0.5557242             -15.1220
        10        2.0000           -0.5428115             -14.7707
        11        2.0000           -0.5220430             -14.2055
        12        2.0000           -0.5076337             -13.8134
        13        2.0000           -0.4975701             -13.5396
        14        2.0000           -0.4769784             -12.9792
        15        2.0000           -0.4722313             -12.8501
        16        2.0000           -0.4648756             -12.6499
        17        2.0000           -0.4237138             -11.5298
        18        2.0000           -0.4013863             -10.9223 (HOMO)
        19                         -0.2287266              -6.2240 (LUMO)
        20                          0.0037780               0.1028
        21                          0.0582125               1.5840
        22                          0.0740097               2.0139
        23                          0.1080009               2.9389
        24                          0.1291458               3.5142
        25                          0.1524062               4.1472
        26                          0.1743028               4.7430
        27                          0.2059063               5.6030
        28                          0.2288680               6.2278
        29                          0.2542736               6.9191
       ...                                ...                  ...
        31                          0.6541872              17.8013
      -------------------------------------------------------------
                  HL-Gap            0.1726598 Eh            4.6983 eV

     #   Z          covCN         q      C6AA      α(0)
     1   6 C        3.753    -0.115    22.765     6.804
     2   6 C        3.779     0.014    20.360     6.428
     3   6 C        2.690     0.347    21.112     7.520
     4   8 O        0.856    -0.376    21.202     6.173
     5   8 O        1.657    -0.367    20.230     6.072
     6   7 N        2.631    -0.353    29.098     8.011
     7   1 H        0.925     0.043     2.409     2.427
     8   1 H        0.925     0.066     2.130     2.282
     9   1 H        0.925     0.042     2.423     2.434
    10   1 H        0.924     0.056     2.248     2.345
    11   1 H        0.803     0.341     0.611     1.228
    12   1 H        0.860     0.152     1.389     1.846
    13   1 H        0.860     0.151     1.391     1.848

Wiberg/Mayer (AO) data.
largest (>0.10) Wiberg bond orders for each atom

     #   Z sym  total        # sym  WBO       # sym  WBO       # sym  WBO
 ---------------------------------------------------------------------------
     1   6 C    3.993 --     2 C    0.997     9 H    0.986     7 H    0.985
                             8 H    0.980
     2   6 C    3.981 --     6 N    1.013     1 C    0.997    10 H    0.947
                             3 C    0.929
     3   6 C    3.922 --     4 O    1.785     5 O    1.165     2 C    0.929
     4   8 O    2.067 --     3 C    1.785     5 O    0.172
     5   8 O    2.223 --     3 C    1.165    11 H    0.822     4 O    0.172
     6   7 N    3.055 --     2 C    1.013    13 H    0.962    12 H    0.962
     7   1 H    0.998 --     1 C    0.985
     8   1 H    0.996 --     1 C    0.980
     9   1 H    0.998 --     1 C    0.986
    10   1 H    0.997 --     2 C    0.947
    11   1 H    0.884 --     5 O    0.822
    12   1 H    0.977 --     6 N    0.962
    13   1 H    0.977 --     6 N    0.962
 ---------------------------------------------------------------------------

molecular dipole:
                 x           y           z       tot (Debye)
 q only:       -1.450       0.084       0.796
   full:       -2.024       0.037       0.836       5.566

 projected vibrational frequencies (cm⁻¹)
eigval :       -0.00    -0.00    -0.00    -0.00     0.00     0.00
eigval :       72.41   185.79   246.33   285.31   337.87   407.48
eigval :      516.01   540.52   692.50   714.68   805.54   933.99
eigval :      959.48  1004.91  1085.57  1129.76  1138.61  1182.91
eigval :     1252.55  1271.65  1312.88  1401.91  1483.60  1489.26
eigval :     1556.75  1809.25  2921.11  3026.41  3029.66  3061.82
eigval :     3172.85  3381.42  3430.01

   temp. (K)  partition function   enthalpy   heat capacity  entropy
                                   cal/mol     cal/K/mol   cal/K/mol   J/K/mol
 298.15  VIB   21.7                 2486.154     17.915     14.283
         ROT  0.142E+06              888.752      2.981     26.552
         INT  0.307E+07             3374.906     20.896     40.835
         TR   0.814E+27             1481.254      4.968     39.356
         TOT                        4856.1601    25.8642    80.1911   335.5196

       T/K    H(0)-H(T)+PV         H(T)/Eh          T*S/Eh         G(T)/Eh
   ------------------------------------------------------------------------
    298.15    0.773878E-02    0.112172E+00    0.381014E-01    0.740704E-01
   ------------------------------------------------------------------------

         :::::::::::::::::::::::::::::::::::::::::::::::::::::
         ::                  THERMODYNAMIC                  ::
         :::::::::::::::::::::::::::::::::::::::::::::::::::::
         :: total free energy         -20.966882843722 Eh   ::
         ::.................................................::
         :: total energy              -21.040953249938 Eh   ::
         :: zero point energy           0.104433006603 Eh   ::
         :: G(RRHO) w/o ZPVE           -0.030362600386 Eh   ::
         :: G(RRHO) contrib.            0.074070406217 Eh   ::
         :::::::::::::::::::::::::::::::::::::::::::::::::::::

           -------------------------------------------------
          | TOTAL ENERGY              -21.040953249938 Eh   |
          | TOTAL ENTHALPY            -20.928781459561 Eh   |
          | TOTAL FREE ENERGY         -20.966882843722 Eh   |
          | GRADIENT NORM               0.000082711220 Eh/α |
          | HOMO-LUMO GAP               4.698311312388 eV   |
           -------------------------------------------------

 * finished run on 2025/07/30 at 12:34:41.431
