   * xtb version 6.6.0 (8843059) compiled by 'stahn@majestix' on 2023-02-09
          program call               : xtb --gfn2 in.xyz --ohess vtight

   ID    Z sym.   atoms
    1    6 C      1-4, 8, 10
    2    8 O      5, 6
    3    7 N      7, 9, 11, 12
    4    1 H      13-26

          :  Hamiltonian                  GFN2-xTB          :
 * total energy  :   -39.8323827 Eh     change       -0.5054801E-10 Eh
   *** GEOMETRY OPTIMIZATION CONVERGED AFTER 1 ITERATIONS ***

 final structure:
================
26
 xtb: 6.6.0 (8843059)
C           -0.84547100000000        2.28952000000000       -0.15223800000000
C           -1.81078800000000        1.27339000000000        0.46640300000000
C           -1.77335200000000       -0.04424400000000       -0.30568800000000
C           -0.37364000000000       -0.68920500000000       -0.10305200000000
O           -0.13660600000000       -1.56888400000000       -1.15400400000000
O           -0.37650100000000       -1.34290800000000        1.11858500000000
N           -2.84817500000000       -0.90989700000000        0.12483000000000
C            0.32506800000000        1.55949700000000       -0.82256000000000
N            0.65501800000000        0.36357300000000       -0.07503100000000
C            1.93647900000000       -0.03580700000000        0.18406100000000
N            2.89968300000000        0.95208000000000        0.24436300000000
N            2.17436300000000       -1.28567900000000        0.35532800000000
H           -1.35561300000000        2.89145500000000       -0.90474800000000
H           -0.47807600000000        2.96289700000000        0.62363500000000
H           -2.83140300000000        1.65220100000000        0.46754700000000
H           -1.52532300000000        1.05745500000000        1.49720300000000
H           -1.90698100000000        0.13347300000000       -1.37702800000000
H            0.51779500000000       -1.72144300000000        1.22035900000000
H           -2.81050500000000       -1.77384600000000       -0.40668000000000
H           -2.69918000000000       -1.15599800000000        1.09930100000000
H            0.04291900000000        1.26195800000000       -1.84066500000000
H            1.19798800000000        2.20570500000000       -0.90468100000000
H            3.77895600000000        0.66133900000000        0.64302500000000
H            2.60750300000000        1.87330800000000        0.52597300000000
H            3.13322700000000       -1.49278500000000        0.61053100000000
H            0.72740700000000       -1.98160700000000       -0.98149900000000

          :  Hamiltonian                  GFN2-xTB          :
         :: gradient norm              0.000043121109 Eh/a0 ::
         :: HOMO-LUMO gap              4.614474240897 eV    ::
         :: SCC energy               -40.250563104932 Eh    ::
         :: -> dispersion             -0.023179571366 Eh    ::
         :: repulsion energy           0.417956340318 Eh    ::

    * Orbital Energies and Occupations

         #    Occupation            Energy/Eh            Energy/eV
      -------------------------------------------------------------
         1        2.0000           -0.6997776             -19.0419
       ...           ...                  ...                  ...
        23        2.0000           -0.4865301             -13.2392
        24        2.0000           -0.4841699             -13.1749
        25        2.0000           -0.4780886             -13.0095
        26        2.0000           -0.4624873             -12.5849
        27        2.0000           -0.4509200             -12.2702
        28        2.0000           -0.4385392             -11.9333
        29        2.0000           -0.4324623             -11.7679
        30        2.0000           -0.4320969             -11.7580
        31        2.0000           -0.4233324             -11.5195
        32        2.0000           -0.4054638             -11.0332
        33        2.0000           -0.3864479             -10.5158
        34        2.0000           -0.3774042             -10.2697
        35        2.0000           -0.3606589              -9.8140 (HOMO)
        36                         -0.1910801              -5.1996 (LUMO)
        37                         -0.0205909              -0.5603
        38                          0.0275788               0.7505
        39                          0.0297668               0.8100
        40                          0.0584263               1.5899
        41                          0.0666460               1.8135
        42                          0.0744525               2.0260
        43                          0.1089647               2.9651
        44                          0.1106426               3.0107
        45                          0.1203889               3.2759
        46                          0.1335825               3.6350
       ...                                ...                  ...
        62                          0.5511591              14.9978
      -------------------------------------------------------------
                  HL-Gap            0.1695788 Eh            4.6145 eV

     #   Z          covCN         q      C6AA      α(0)
     1   6 C        3.804    -0.068    21.807     6.648
     2   6 C        3.809    -0.073    21.897     6.661
     3   6 C        3.785     0.046    19.820     6.341
     4   6 C        3.607     0.324    16.218     5.818
     5   8 O        1.656    -0.472    22.297     6.374
     6   8 O        1.657    -0.465    22.156     6.354
     7   7 N        2.632    -0.340    28.751     7.964
     8   6 C        3.746     0.005    20.559     6.468
     9   7 N        2.749    -0.174    24.765     7.391
    10   6 C        2.748     0.240    22.989     7.851
    11   7 N        2.641    -0.311    28.000     7.859
    12   7 N        1.789    -0.463    33.194     8.534
    13   1 H        0.924     0.045     2.382     2.414
    14   1 H        0.924     0.041     2.433     2.439
    15   1 H        0.925     0.058     2.222     2.331
    16   1 H        0.924     0.052     2.297     2.370
    17   1 H        0.924     0.045     2.380     2.413
    18   1 H        0.804     0.322     0.658     1.274
    19   1 H        0.860     0.154     1.375     1.837
    20   1 H        0.860     0.159     1.340     1.814
    21   1 H        0.924     0.043     2.415     2.430
    22   1 H        0.925     0.049     2.338     2.391
    23   1 H        0.860     0.170     1.271     1.766
    24   1 H        0.860     0.170     1.274     1.768
    25   1 H        0.860     0.123     1.598     1.980
    26   1 H        0.804     0.321     0.661     1.278

Wiberg/Mayer (AO) data.
largest (>0.10) Wiberg bond orders for each atom

     #   Z sym  total        # sym  WBO       # sym  WBO       # sym  WBO
 ---------------------------------------------------------------------------
     1   6 C    3.996 --     2 C    1.005     8 C    0.998    14 H    0.980
                            13 H    0.979
     2   6 C    3.994 --     1 C    1.005     3 C    0.994    16 H    0.977
                            15 H    0.976
     3   6 C    3.987 --     7 N    1.034     2 C    0.994    17 H    0.963
                             4 C    0.933
     4   6 C    3.922 --     6 O    1.005     5 O    0.991     3 C    0.933
                             9 N    0.921
     5   8 O    1.975 --     4 C    0.991    26 H    0.856
     6   8 O    1.979 --     4 C    1.005    18 H    0.837
     7   7 N    3.015 --     3 C    1.034    19 H    0.961    20 H    0.956
     8   6 C    3.974 --     1 C    0.998     9 N    0.987    22 H    0.968
                            21 H    0.966
     9   7 N    3.380 --    10 C    1.172     8 C    0.987     4 C    0.921
                            12 N    0.118
    10   6 C    3.962 --    12 N    1.607     9 N    1.172    11 N    1.135
    11   7 N    3.233 --    10 C    1.135    23 H    0.950    24 H    0.944
                            12 N    0.132
    12   7 N    2.941 --    10 C    1.607    25 H    0.954    11 N    0.132
                             9 N    0.118
    13   1 H    0.998 --     1 C    0.979
    14   1 H    0.998 --     1 C    0.980
    15   1 H    0.997 --     2 C    0.976
    16   1 H    0.997 --     2 C    0.977
    17   1 H    0.998 --     3 C    0.963
    18   1 H    0.896 --     6 O    0.837
    19   1 H    0.976 --     7 N    0.961
    20   1 H    0.975 --     7 N    0.956
    21   1 H    0.998 --     8 C    0.966
    22   1 H    0.998 --     8 C    0.968
    23   1 H    0.970 --    11 N    0.950
    24   1 H    0.971 --    11 N    0.944
    25   1 H    0.984 --    12 N    0.954
    26   1 H    0.897 --     5 O    0.856
 ---------------------------------------------------------------------------

molecular dipole:
                 x           y           z       tot (Debye)
 q only:        0.568       1.142       0.176
   full:        1.639       1.225       0.400       5.299

 projected vibrational frequencies (cm⁻¹)
eigval :       -0.00     0.00     0.00     0.00     0.00     0.00
eigval :       53.50    97.30   106.44   164.12   186.45   249.81
eigval :      268.70   297.58   308.15   331.64   361.49   405.65
eigval :      416.94   444.64   483.51   511.99   534.68   549.86
eigval :      551.93   586.93   624.10   651.47   664.14   742.38
eigval :      753.98   814.11   874.25   942.06   949.35   995.43
eigval :     1014.62  1026.29  1032.87  1062.19  1075.43  1095.20
eigval :     1116.18  1134.33  1145.69  1164.77  1183.71  1211.73
eigval :     1220.40  1236.06  1255.18  1281.02  1321.54  1329.12
eigval :     1333.19  1358.63  1364.69  1426.55  1476.50  1484.06
eigval :     1492.66  1505.32  1562.67  1661.26  2899.86  2950.25
eigval :     2977.31  2992.28  2997.96  3006.03  3017.20  3290.58
eigval :     3380.23  3385.21  3403.50  3411.64  3457.54  3509.57

   temp. (K)  partition function   enthalpy   heat capacity  entropy
                                   cal/mol     cal/K/mol   cal/K/mol   J/K/mol
 298.15  VIB  0.156E+04             5876.055     42.277     33.734
         ROT  0.963E+06              888.752      2.981     30.362
         INT  0.150E+10             6764.808     45.257     64.095
         TR   0.222E+28             1481.254      4.968     41.354
         TOT                        8246.0616    50.2256   105.4492   441.1994

       T/K    H(0)-H(T)+PV         H(T)/Eh          T*S/Eh         G(T)/Eh
   ------------------------------------------------------------------------
    298.15    0.131409E-01    0.229962E+00    0.501023E-01    0.179860E+00
   ------------------------------------------------------------------------

         :::::::::::::::::::::::::::::::::::::::::::::::::::::
         ::                  THERMODYNAMIC                  ::
         :::::::::::::::::::::::::::::::::::::::::::::::::::::
         :: total free energy         -39.652522719170 Eh   ::
         ::.................................................::
         :: total energy              -39.832382700200 Eh   ::
         :: zero point energy           0.216821354403 Eh   ::
         :: G(RRHO) w/o ZPVE           -0.036961373373 Eh   ::
         :: G(RRHO) contrib.            0.179859981029 Eh   ::
         :::::::::::::::::::::::::::::::::::::::::::::::::::::

           -------------------------------------------------
          | TOTAL ENERGY              -39.832382700200 Eh   |
          | TOTAL ENTHALPY            -39.602420410142 Eh   |
          | TOTAL FREE ENERGY         -39.652522719170 Eh   |
          | GRADIENT NORM               0.000043114522 Eh/α |
          | HOMO-LUMO GAP               4.614474368529 eV   |
           -------------------------------------------------

 * finished run on 2025/07/30 at 12:34:47.306
